<?xml version="1.0" encoding="UTF-8"?>

<!-- generated on 2024-06-11 13:43:22 by Eclipse SUMO GUI Version 1.19.0
<configuration xmlns:xsi="http://www.w3.org/2001/XMLSchema-instance" xsi:noNamespaceSchemaLocation="http://sumo.dlr.de/xsd/sumoConfiguration.xsd">

    <input>
        <net-file value="C:\Users\joshu\Code\sumo-str-sim\pureba\net.net.xml"/>
        <route-files value="C:\Users\joshu\Code\sumo-str-sim\pureba\net.rou.xml"/>
        <additional-files value="C:\Users\joshu\Code\sumo-str-sim\pureba\net.add.xml,C:\Users\joshu\Code\sumo-str-sim\pureba\sumoNet.med.add.xml"/>
    </input>

</configuration>
-->

<meandata xmlns:xsi="http://www.w3.org/2001/XMLSchema-instance" xsi:noNamespaceSchemaLocation="http://sumo.dlr.de/xsd/meandata_file.xsd">
    <interval begin="0.00" end="60.00" id="e1laneData">
        <edge id="E1">
            <lane id="E1_0" sampledSeconds="93.05" traveltime="20.22" overlapTraveltime="21.06" density="7.27" laneDensity="7.27" occupancy="3.57" waitingTime="0.00" timeLoss="21.70" speed="10.37" speedRelative="0.75" departed="5" arrived="0" entered="0" left="4" laneChangedFrom="0" laneChangedTo="0"/>
        </edge>
    </interval>
    <interval begin="60.00" end="120.00" id="e1laneData">
        <edge id="E1">
            <lane id="E1_0" sampledSeconds="105.25" traveltime="20.86" overlapTraveltime="21.72" density="8.22" laneDensity="8.22" occupancy="4.03" waitingTime="0.00" timeLoss="23.81" speed="10.05" speedRelative="0.72" departed="5" arrived="0" entered="0" left="5" laneChangedFrom="0" laneChangedTo="0"/>
        </edge>
    </interval>
    <interval begin="120.00" end="180.00" id="e1laneData">
        <edge id="E1">
            <lane id="E1_0" sampledSeconds="98.16" traveltime="19.24" overlapTraveltime="20.02" density="7.67" laneDensity="7.67" occupancy="3.76" waitingTime="0.00" timeLoss="24.04" speed="10.91" speedRelative="0.79" departed="5" arrived="0" entered="0" left="5" laneChangedFrom="0" laneChangedTo="0"/>
        </edge>
    </interval>
    <interval begin="180.00" end="240.00" id="e1laneData">
        <edge id="E1">
            <lane id="E1_0" sampledSeconds="128.90" traveltime="25.12" overlapTraveltime="26.22" density="10.07" laneDensity="10.07" occupancy="4.94" waitingTime="22.00" timeLoss="53.19" speed="8.33" speedRelative="0.60" departed="5" arrived="0" entered="0" left="5" laneChangedFrom="0" laneChangedTo="0"/>
        </edge>
    </interval>
    <interval begin="240.00" end="300.00" id="e1laneData">
        <edge id="E1">
            <lane id="E1_0" sampledSeconds="183.26" traveltime="39.32" overlapTraveltime="40.34" density="14.32" laneDensity="14.32" occupancy="7.14" waitingTime="82.00" timeLoss="111.33" speed="5.41" speedRelative="0.39" departed="5" arrived="0" entered="0" left="2" laneChangedFrom="0" laneChangedTo="0"/>
        </edge>
    </interval>
    <interval begin="300.00" end="360.00" id="e1laneData">
        <edge id="E1">
            <lane id="E1_0" sampledSeconds="210.18" traveltime="39.52" overlapTraveltime="40.53" density="16.42" laneDensity="16.42" occupancy="8.06" waitingTime="73.00" timeLoss="123.73" speed="5.39" speedRelative="0.39" departed="5" arrived="0" entered="0" left="7" laneChangedFrom="0" laneChangedTo="0"/>
        </edge>
    </interval>
    <interval begin="360.00" end="420.00" id="e1laneData">
        <edge id="E1">
            <lane id="E1_0" sampledSeconds="167.39" traveltime="34.61" overlapTraveltime="35.65" density="13.08" laneDensity="13.08" occupancy="6.48" waitingTime="64.00" timeLoss="96.22" speed="6.12" speedRelative="0.44" departed="5" arrived="0" entered="0" left="3" laneChangedFrom="0" laneChangedTo="0"/>
        </edge>
    </interval>
    <interval begin="420.00" end="480.00" id="e1laneData">
        <edge id="E1">
            <lane id="E1_0" sampledSeconds="240.42" traveltime="48.05" overlapTraveltime="49.05" density="18.78" laneDensity="18.78" occupancy="9.30" waitingTime="112.00" timeLoss="162.73" speed="4.45" speedRelative="0.32" departed="5" arrived="0" entered="0" left="5" laneChangedFrom="0" laneChangedTo="0"/>
        </edge>
    </interval>
    <interval begin="480.00" end="540.00" id="e1laneData">
        <edge id="E1">
            <lane id="E1_0" sampledSeconds="337.05" traveltime="75.70" overlapTraveltime="77.25" density="26.33" laneDensity="26.33" occupancy="13.12" waitingTime="216.00" timeLoss="267.13" speed="2.83" speedRelative="0.20" departed="5" arrived="0" entered="0" left="2" laneChangedFrom="0" laneChangedTo="0"/>
        </edge>
    </interval>
    <interval begin="540.00" end="600.00" id="e1laneData">
        <edge id="E1">
            <lane id="E1_0" sampledSeconds="188.90" traveltime="32.63" overlapTraveltime="33.76" density="14.76" laneDensity="14.76" occupancy="7.18" waitingTime="34.00" timeLoss="95.10" speed="6.47" speedRelative="0.47" departed="5" arrived="0" entered="0" left="11" laneChangedFrom="0" laneChangedTo="0"/>
        </edge>
    </interval>
    <interval begin="600.00" end="660.00" id="e1laneData">
        <edge id="E1">
            <lane id="E1_0" sampledSeconds="145.44" traveltime="30.56" overlapTraveltime="31.29" density="11.36" laneDensity="11.36" occupancy="5.65" waitingTime="45.00" timeLoss="72.19" speed="6.98" speedRelative="0.50" departed="5" arrived="0" entered="0" left="2" laneChangedFrom="0" laneChangedTo="0"/>
        </edge>
    </interval>
    <interval begin="660.00" end="720.00" id="e1laneData">
        <edge id="E1">
            <lane id="E1_0" sampledSeconds="273.80" traveltime="55.17" overlapTraveltime="56.47" density="21.39" laneDensity="21.39" occupancy="10.60" waitingTime="136.00" timeLoss="197.69" speed="3.87" speedRelative="0.28" departed="5" arrived="0" entered="0" left="4" laneChangedFrom="0" laneChangedTo="0"/>
        </edge>
    </interval>
    <interval begin="720.00" end="780.00" id="e1laneData">
        <edge id="E1">
            <lane id="E1_0" sampledSeconds="243.83" traveltime="49.25" overlapTraveltime="50.22" density="19.05" laneDensity="19.05" occupancy="9.44" waitingTime="118.00" timeLoss="163.50" speed="4.35" speedRelative="0.31" departed="5" arrived="0" entered="0" left="5" laneChangedFrom="0" laneChangedTo="0"/>
        </edge>
    </interval>
    <interval begin="780.00" end="840.00" id="e1laneData">
        <edge id="E1">
            <lane id="E1_0" sampledSeconds="211.21" traveltime="39.85" overlapTraveltime="41.05" density="16.50" laneDensity="16.50" occupancy="8.09" waitingTime="68.00" timeLoss="126.59" speed="5.32" speedRelative="0.38" departed="5" arrived="0" entered="0" left="8" laneChangedFrom="0" laneChangedTo="0"/>
        </edge>
    </interval>
    <interval begin="840.00" end="900.00" id="e1laneData">
        <edge id="E1">
            <lane id="E1_0" sampledSeconds="274.81" traveltime="56.16" overlapTraveltime="57.29" density="21.47" laneDensity="21.47" occupancy="10.66" waitingTime="152.00" timeLoss="200.33" speed="3.81" speedRelative="0.27" departed="5" arrived="0" entered="0" left="4" laneChangedFrom="0" laneChangedTo="0"/>
        </edge>
    </interval>
    <interval begin="900.00" end="960.00" id="e1laneData">
        <edge id="E1">
            <lane id="E1_0" sampledSeconds="247.22" traveltime="51.32" overlapTraveltime="52.55" density="19.31" laneDensity="19.31" occupancy="9.59" waitingTime="118.00" timeLoss="169.35" speed="4.16" speedRelative="0.30" departed="5" arrived="0" entered="0" left="3" laneChangedFrom="0" laneChangedTo="0"/>
        </edge>
    </interval>
    <interval begin="960.00" end="1020.00" id="e1laneData">
        <edge id="E1">
            <lane id="E1_0" sampledSeconds="433.19" traveltime="104.74" overlapTraveltime="107.11" density="33.84" laneDensity="33.84" occupancy="16.89" waitingTime="309.00" timeLoss="369.52" speed="2.04" speedRelative="0.15" departed="5" arrived="0" entered="0" left="1" laneChangedFrom="0" laneChangedTo="0"/>
        </edge>
    </interval>
    <interval begin="1020.00" end="1080.00" id="e1laneData">
        <edge id="E1">
            <lane id="E1_0" sampledSeconds="379.92" traveltime="70.53" overlapTraveltime="71.33" density="29.68" laneDensity="29.68" occupancy="14.71" waitingTime="203.00" timeLoss="292.34" speed="3.06" speedRelative="0.22" departed="5" arrived="0" entered="0" left="7" laneChangedFrom="0" laneChangedTo="0"/>
        </edge>
    </interval>
    <interval begin="1080.00" end="1140.00" id="e1laneData">
        <edge id="E1">
            <lane id="E1_0" sampledSeconds="401.57" traveltime="81.54" overlapTraveltime="82.81" density="31.37" laneDensity="31.37" occupancy="15.57" waitingTime="220.00" timeLoss="321.71" speed="2.64" speedRelative="0.19" departed="5" arrived="0" entered="0" left="5" laneChangedFrom="0" laneChangedTo="0"/>
        </edge>
    </interval>
    <interval begin="1140.00" end="1200.00" id="e1laneData">
        <edge id="E1">
            <lane id="E1_0" sampledSeconds="399.72" traveltime="79.47" overlapTraveltime="80.43" density="31.22" laneDensity="31.22" occupancy="15.49" waitingTime="242.00" timeLoss="319.03" speed="2.71" speedRelative="0.20" departed="5" arrived="0" entered="0" left="6" laneChangedFrom="0" laneChangedTo="0"/>
        </edge>
    </interval>
    <interval begin="1200.00" end="1260.00" id="e1laneData">
        <edge id="E1">
            <lane id="E1_0" sampledSeconds="378.44" traveltime="76.95" overlapTraveltime="78.23" density="29.56" laneDensity="29.56" occupancy="14.70" waitingTime="204.00" timeLoss="295.05" speed="2.79" speedRelative="0.20" departed="5" arrived="0" entered="0" left="4" laneChangedFrom="0" laneChangedTo="0"/>
        </edge>
    </interval>
    <interval begin="1260.00" end="1320.00" id="e1laneData">
        <edge id="E1">
            <lane id="E1_0" sampledSeconds="353.41" traveltime="63.74" overlapTraveltime="64.48" density="27.61" laneDensity="27.61" occupancy="13.63" waitingTime="175.00" timeLoss="264.26" speed="3.39" speedRelative="0.24" departed="5" arrived="0" entered="0" left="9" laneChangedFrom="0" laneChangedTo="0"/>
        </edge>
    </interval>
    <interval begin="1320.00" end="1380.00" id="e1laneData">
        <edge id="E1">
            <lane id="E1_0" sampledSeconds="139.83" traveltime="27.24" overlapTraveltime="28.35" density="10.92" laneDensity="10.92" occupancy="5.34" waitingTime="25.00" timeLoss="55.92" speed="7.70" speedRelative="0.55" departed="5" arrived="0" entered="0" left="7" laneChangedFrom="0" laneChangedTo="0"/>
        </edge>
    </interval>
    <interval begin="1380.00" end="1440.00" id="e1laneData">
        <edge id="E1">
            <lane id="E1_0" sampledSeconds="147.89" traveltime="30.41" overlapTraveltime="31.19" density="11.55" laneDensity="11.55" occupancy="5.74" waitingTime="40.00" timeLoss="67.48" speed="7.00" speedRelative="0.50" departed="5" arrived="0" entered="0" left="2" laneChangedFrom="0" laneChangedTo="0"/>
        </edge>
    </interval>
    <interval begin="1440.00" end="1500.00" id="e1laneData">
        <edge id="E1">
            <lane id="E1_0" sampledSeconds="227.05" traveltime="45.76" overlapTraveltime="46.85" density="17.74" laneDensity="17.74" occupancy="8.77" waitingTime="95.00" timeLoss="141.27" speed="4.66" speedRelative="0.34" departed="5" arrived="0" entered="0" left="5" laneChangedFrom="0" laneChangedTo="0"/>
        </edge>
    </interval>
    <interval begin="1500.00" end="1560.00" id="e1laneData">
        <edge id="E1">
            <lane id="E1_0" sampledSeconds="156.31" traveltime="30.06" overlapTraveltime="31.35" density="12.21" laneDensity="12.21" occupancy="5.98" waitingTime="32.00" timeLoss="68.84" speed="6.97" speedRelative="0.50" departed="5" arrived="0" entered="0" left="6" laneChangedFrom="0" laneChangedTo="0"/>
        </edge>
    </interval>
    <interval begin="1560.00" end="1620.00" id="e1laneData">
        <edge id="E1">
            <lane id="E1_0" sampledSeconds="313.52" traveltime="67.30" overlapTraveltime="68.81" density="24.49" laneDensity="24.49" occupancy="12.20" waitingTime="183.00" timeLoss="239.35" speed="3.17" speedRelative="0.23" departed="5" arrived="0" entered="0" left="2" laneChangedFrom="0" laneChangedTo="0"/>
        </edge>
    </interval>
    <interval begin="1620.00" end="1680.00" id="e1laneData">
        <edge id="E1">
            <lane id="E1_0" sampledSeconds="388.15" traveltime="84.12" overlapTraveltime="85.44" density="30.32" laneDensity="30.32" occupancy="15.07" waitingTime="249.00" timeLoss="314.93" speed="2.56" speedRelative="0.18" departed="5" arrived="0" entered="0" left="4" laneChangedFrom="0" laneChangedTo="0"/>
        </edge>
    </interval>
    <interval begin="1680.00" end="1740.00" id="e1laneData">
        <edge id="E1">
            <lane id="E1_0" sampledSeconds="300.45" traveltime="52.28" overlapTraveltime="52.96" density="23.47" laneDensity="23.47" occupancy="11.54" waitingTime="111.00" timeLoss="205.77" speed="4.12" speedRelative="0.30" departed="5" arrived="0" entered="0" left="11" laneChangedFrom="0" laneChangedTo="0"/>
        </edge>
    </interval>
    <interval begin="1740.00" end="1800.00" id="e1laneData">
        <edge id="E1">
            <lane id="E1_0" sampledSeconds="189.51" traveltime="37.47" overlapTraveltime="38.56" density="14.80" laneDensity="14.80" occupancy="7.30" waitingTime="64.00" timeLoss="105.75" speed="5.66" speedRelative="0.41" departed="5" arrived="0" entered="0" left="5" laneChangedFrom="0" laneChangedTo="0"/>
        </edge>
    </interval>
    <interval begin="1800.00" end="1860.00" id="e1laneData">
        <edge id="E1">
            <lane id="E1_0" sampledSeconds="215.34" traveltime="43.86" overlapTraveltime="44.97" density="16.82" laneDensity="16.82" occupancy="8.35" waitingTime="93.00" timeLoss="140.42" speed="4.86" speedRelative="0.35" departed="5" arrived="0" entered="0" left="3" laneChangedFrom="0" laneChangedTo="0"/>
        </edge>
    </interval>
    <interval begin="1860.00" end="1920.00" id="e1laneData">
        <edge id="E1">
            <lane id="E1_0" sampledSeconds="333.53" traveltime="70.29" overlapTraveltime="71.42" density="26.05" laneDensity="26.05" occupancy="12.95" waitingTime="201.00" timeLoss="259.55" speed="3.06" speedRelative="0.22" departed="5" arrived="0" entered="0" left="4" laneChangedFrom="0" laneChangedTo="0"/>
        </edge>
    </interval>
    <interval begin="1920.00" end="1980.00" id="e1laneData">
        <edge id="E1">
            <lane id="E1_0" sampledSeconds="166.33" traveltime="31.21" overlapTraveltime="32.55" density="12.99" laneDensity="12.99" occupancy="6.35" waitingTime="31.00" timeLoss="84.94" speed="6.71" speedRelative="0.48" departed="5" arrived="0" entered="0" left="7" laneChangedFrom="0" laneChangedTo="0"/>
        </edge>
    </interval>
    <interval begin="1980.00" end="2040.00" id="e1laneData">
        <edge id="E1">
            <lane id="E1_0" sampledSeconds="147.40" traveltime="29.16" overlapTraveltime="30.47" density="11.51" laneDensity="11.51" occupancy="5.65" waitingTime="29.00" timeLoss="67.35" speed="7.17" speedRelative="0.52" departed="5" arrived="0" entered="0" left="5" laneChangedFrom="0" laneChangedTo="0"/>
        </edge>
    </interval>
    <interval begin="2040.00" end="2100.00" id="e1laneData">
        <edge id="E1">
            <lane id="E1_0" sampledSeconds="128.80" traveltime="25.22" overlapTraveltime="26.24" density="10.06" laneDensity="10.06" occupancy="4.94" waitingTime="9.00" timeLoss="43.13" speed="8.32" speedRelative="0.60" departed="5" arrived="0" entered="0" left="4" laneChangedFrom="0" laneChangedTo="0"/>
        </edge>
    </interval>
    <interval begin="2100.00" end="2160.00" id="e1laneData">
        <edge id="E1">
            <lane id="E1_0" sampledSeconds="214.77" traveltime="42.89" overlapTraveltime="44.11" density="16.78" laneDensity="16.78" occupancy="8.26" waitingTime="84.00" timeLoss="130.88" speed="4.95" speedRelative="0.36" departed="5" arrived="0" entered="0" left="6" laneChangedFrom="0" laneChangedTo="0"/>
        </edge>
    </interval>
    <interval begin="2160.00" end="2220.00" id="e1laneData">
        <edge id="E1">
            <lane id="E1_0" sampledSeconds="195.40" traveltime="38.57" overlapTraveltime="39.80" density="15.26" laneDensity="15.26" occupancy="7.53" waitingTime="66.00" timeLoss="110.89" speed="5.49" speedRelative="0.40" departed="5" arrived="0" entered="0" left="5" laneChangedFrom="0" laneChangedTo="0"/>
        </edge>
    </interval>
    <interval begin="2220.00" end="2280.00" id="e1laneData">
        <edge id="E1">
            <lane id="E1_0" sampledSeconds="175.81" traveltime="35.42" overlapTraveltime="36.57" density="13.73" laneDensity="13.73" occupancy="6.78" waitingTime="57.00" timeLoss="94.43" speed="5.97" speedRelative="0.43" departed="5" arrived="0" entered="0" left="4" laneChangedFrom="0" laneChangedTo="0"/>
        </edge>
    </interval>
    <interval begin="2280.00" end="2340.00" id="e1laneData">
        <edge id="E1">
            <lane id="E1_0" sampledSeconds="160.54" traveltime="30.58" overlapTraveltime="31.80" density="12.54" laneDensity="12.54" occupancy="6.15" waitingTime="41.00" timeLoss="77.88" speed="6.87" speedRelative="0.49" departed="5" arrived="0" entered="0" left="6" laneChangedFrom="0" laneChangedTo="0"/>
        </edge>
    </interval>
    <interval begin="2340.00" end="2400.00" id="e1laneData">
        <edge id="E1">
            <lane id="E1_0" sampledSeconds="211.85" traveltime="43.96" overlapTraveltime="45.00" density="16.55" laneDensity="16.55" occupancy="8.22" waitingTime="99.00" timeLoss="140.01" speed="4.85" speedRelative="0.35" departed="5" arrived="0" entered="0" left="3" laneChangedFrom="0" laneChangedTo="0"/>
        </edge>
    </interval>
    <interval begin="2400.00" end="2460.00" id="e1laneData">
        <edge id="E1">
            <lane id="E1_0" sampledSeconds="233.43" traveltime="45.92" overlapTraveltime="46.99" density="18.23" laneDensity="18.23" occupancy="8.96" waitingTime="94.00" timeLoss="143.63" speed="4.65" speedRelative="0.33" departed="5" arrived="0" entered="0" left="8" laneChangedFrom="0" laneChangedTo="0"/>
        </edge>
    </interval>
    <interval begin="2460.00" end="2520.00" id="e1laneData">
        <edge id="E1">
            <lane id="E1_0" sampledSeconds="105.77" traveltime="20.82" overlapTraveltime="21.73" density="8.26" laneDensity="8.26" occupancy="4.04" waitingTime="0.00" timeLoss="24.19" speed="10.05" speedRelative="0.72" departed="5" arrived="0" entered="0" left="5" laneChangedFrom="0" laneChangedTo="0"/>
        </edge>
    </interval>
    <interval begin="2520.00" end="2580.00" id="e1laneData">
        <edge id="E1">
            <lane id="E1_0" sampledSeconds="224.14" traveltime="47.49" overlapTraveltime="48.81" density="17.51" laneDensity="17.51" occupancy="8.72" waitingTime="97.00" timeLoss="147.94" speed="4.47" speedRelative="0.32" departed="5" arrived="0" entered="0" left="1" laneChangedFrom="0" laneChangedTo="0"/>
        </edge>
    </interval>
    <interval begin="2580.00" end="2640.00" id="e1laneData">
        <edge id="E1">
            <lane id="E1_0" sampledSeconds="416.09" traveltime="90.55" overlapTraveltime="92.02" density="32.50" laneDensity="32.50" occupancy="16.19" waitingTime="265.00" timeLoss="342.28" speed="2.37" speedRelative="0.17" departed="5" arrived="0" entered="0" left="3" laneChangedFrom="0" laneChangedTo="0"/>
        </edge>
    </interval>
    <interval begin="2640.00" end="2700.00" id="e1laneData">
        <edge id="E1">
            <lane id="E1_0" sampledSeconds="326.57" traveltime="62.13" overlapTraveltime="63.34" density="25.51" laneDensity="25.51" occupancy="12.62" waitingTime="151.00" timeLoss="241.29" speed="3.45" speedRelative="0.25" departed="5" arrived="0" entered="0" left="6" laneChangedFrom="0" laneChangedTo="0"/>
        </edge>
    </interval>
    <interval begin="2700.00" end="2760.00" id="e1laneData">
        <edge id="E1">
            <lane id="E1_0" sampledSeconds="432.16" traveltime="95.72" overlapTraveltime="97.12" density="33.76" laneDensity="33.76" occupancy="16.79" waitingTime="274.00" timeLoss="357.72" speed="2.25" speedRelative="0.16" departed="5" arrived="0" entered="0" left="4" laneChangedFrom="0" laneChangedTo="0"/>
        </edge>
    </interval>
    <interval begin="2760.00" end="2820.00" id="e1laneData">
        <edge id="E1">
            <lane id="E1_0" sampledSeconds="551.40" traveltime="128.28" overlapTraveltime="129.86" density="43.07" laneDensity="43.07" occupancy="21.45" waitingTime="356.00" timeLoss="482.34" speed="1.68" speedRelative="0.12" departed="5" arrived="0" entered="0" left="4" laneChangedFrom="0" laneChangedTo="0"/>
        </edge>
    </interval>
    <interval begin="2820.00" end="2880.00" id="e1laneData">
        <edge id="E1">
            <lane id="E1_0" sampledSeconds="560.40" traveltime="93.65" overlapTraveltime="94.13" density="43.78" laneDensity="43.78" occupancy="21.74" waitingTime="306.00" timeLoss="465.07" speed="2.32" speedRelative="0.17" departed="5" arrived="0" entered="0" left="8" laneChangedFrom="0" laneChangedTo="0"/>
        </edge>
    </interval>
    <interval begin="2880.00" end="2940.00" id="e1laneData">
        <edge id="E1">
            <lane id="E1_0" sampledSeconds="420.59" traveltime="92.07" overlapTraveltime="93.52" density="32.85" laneDensity="32.85" occupancy="16.35" waitingTime="265.00" timeLoss="343.78" speed="2.33" speedRelative="0.17" departed="5" arrived="0" entered="0" left="4" laneChangedFrom="0" laneChangedTo="0"/>
        </edge>
    </interval>
    <interval begin="2940.00" end="3000.00" id="e1laneData">
        <edge id="E1">
            <lane id="E1_0" sampledSeconds="427.14" traveltime="74.84" overlapTraveltime="75.64" density="33.37" laneDensity="33.37" occupancy="16.51" waitingTime="207.00" timeLoss="335.07" speed="2.89" speedRelative="0.21" departed="5" arrived="0" entered="0" left="8" laneChangedFrom="0" laneChangedTo="0"/>
        </edge>
    </interval>
    <interval begin="3000.00" end="3060.00" id="e1laneData">
        <edge id="E1">
            <lane id="E1_0" sampledSeconds="241.67" traveltime="47.58" overlapTraveltime="49.04" density="18.88" laneDensity="18.88" occupancy="9.30" waitingTime="92.00" timeLoss="167.28" speed="4.45" speedRelative="0.32" departed="5" arrived="0" entered="0" left="6" laneChangedFrom="0" laneChangedTo="0"/>
        </edge>
    </interval>
    <interval begin="3060.00" end="3120.00" id="e1laneData">
        <edge id="E1">
            <lane id="E1_0" sampledSeconds="209.57" traveltime="43.03" overlapTraveltime="44.04" density="16.37" laneDensity="16.37" occupancy="8.13" waitingTime="94.00" timeLoss="138.15" speed="4.96" speedRelative="0.36" departed="5" arrived="0" entered="0" left="3" laneChangedFrom="0" laneChangedTo="0"/>
        </edge>
    </interval>
    <interval begin="3120.00" end="3180.00" id="e1laneData">
        <edge id="E1">
            <lane id="E1_0" sampledSeconds="219.58" traveltime="44.52" overlapTraveltime="45.47" density="17.15" laneDensity="17.15" occupancy="8.49" waitingTime="99.00" timeLoss="143.86" speed="4.80" speedRelative="0.35" departed="5" arrived="0" entered="0" left="5" laneChangedFrom="0" laneChangedTo="0"/>
        </edge>
    </interval>
    <interval begin="3180.00" end="3240.00" id="e1laneData">
        <edge id="E1">
            <lane id="E1_0" sampledSeconds="262.35" traveltime="51.01" overlapTraveltime="52.17" density="20.49" laneDensity="20.49" occupancy="10.13" waitingTime="117.00" timeLoss="178.98" speed="4.19" speedRelative="0.30" departed="5" arrived="0" entered="0" left="6" laneChangedFrom="0" laneChangedTo="0"/>
        </edge>
    </interval>
    <interval begin="3240.00" end="3300.00" id="e1laneData">
        <edge id="E1">
            <lane id="E1_0" sampledSeconds="344.76" traveltime="78.64" overlapTraveltime="80.45" density="26.93" laneDensity="26.93" occupancy="13.44" waitingTime="223.00" timeLoss="281.20" speed="2.71" speedRelative="0.20" departed="5" arrived="0" entered="0" left="1" laneChangedFrom="0" laneChangedTo="0"/>
        </edge>
    </interval>
    <interval begin="3300.00" end="3360.00" id="e1laneData">
        <edge id="E1">
            <lane id="E1_0" sampledSeconds="272.06" traveltime="49.55" overlapTraveltime="50.28" density="21.25" laneDensity="21.25" occupancy="10.48" waitingTime="114.00" timeLoss="186.07" speed="4.34" speedRelative="0.31" departed="5" arrived="0" entered="0" left="9" laneChangedFrom="0" laneChangedTo="0"/>
        </edge>
    </interval>
    <interval begin="3360.00" end="3420.00" id="e1laneData">
        <edge id="E1">
            <lane id="E1_0" sampledSeconds="154.98" traveltime="30.19" overlapTraveltime="31.48" density="12.11" laneDensity="12.11" occupancy="5.94" waitingTime="34.00" timeLoss="68.18" speed="6.94" speedRelative="0.50" departed="5" arrived="0" entered="0" left="5" laneChangedFrom="0" laneChangedTo="0"/>
        </edge>
    </interval>
    <interval begin="3420.00" end="3480.00" id="e1laneData">
        <edge id="E1">
            <lane id="E1_0" sampledSeconds="147.00" traveltime="28.47" overlapTraveltime="29.52" density="11.48" laneDensity="11.48" occupancy="5.62" waitingTime="35.00" timeLoss="72.46" speed="7.40" speedRelative="0.53" departed="5" arrived="0" entered="0" left="7" laneChangedFrom="0" laneChangedTo="0"/>
        </edge>
    </interval>
    <interval begin="3480.00" end="3540.00" id="e1laneData">
        <edge id="E1">
            <lane id="E1_0" sampledSeconds="173.13" traveltime="35.04" overlapTraveltime="36.12" density="13.52" laneDensity="13.52" occupancy="6.68" waitingTime="57.00" timeLoss="93.17" speed="6.05" speedRelative="0.44" departed="5" arrived="0" entered="0" left="4" laneChangedFrom="0" laneChangedTo="0"/>
        </edge>
    </interval>
    <interval begin="3540.00" end="3600.00" id="e1laneData">
        <edge id="E1">
            <lane id="E1_0" sampledSeconds="182.64" traveltime="37.44" overlapTraveltime="38.46" density="14.27" laneDensity="14.27" occupancy="7.06" waitingTime="71.00" timeLoss="106.94" speed="5.68" speedRelative="0.41" departed="5" arrived="0" entered="0" left="4" laneChangedFrom="0" laneChangedTo="0"/>
        </edge>
    </interval>
    <interval begin="3600.00" end="3660.00" id="e1laneData">
        <edge id="E1">
            <lane id="E1_0" sampledSeconds="61.41" traveltime="91.69" overlapTraveltime="89.76" density="4.80" laneDensity="4.80" occupancy="2.33" waitingTime="33.00" timeLoss="47.60" speed="2.43" speedRelative="0.18" departed="0" arrived="0" entered="0" left="3" laneChangedFrom="0" laneChangedTo="0"/>
        </edge>
    </interval>
    <interval begin="3660.00" end="3720.00" id="e1laneData"/>
    <interval begin="3720.00" end="3780.00" id="e1laneData"/>
    <interval begin="3780.00" end="3840.00" id="e1laneData"/>
    <interval begin="3840.00" end="3900.00" id="e1laneData"/>
    <interval begin="3900.00" end="3960.00" id="e1laneData"/>
    <interval begin="3960.00" end="4020.00" id="e1laneData"/>
    <interval begin="4020.00" end="4080.00" id="e1laneData"/>
    <interval begin="4080.00" end="4140.00" id="e1laneData"/>
    <interval begin="4140.00" end="4200.00" id="e1laneData"/>
    <interval begin="4200.00" end="4260.00" id="e1laneData"/>
    <interval begin="4260.00" end="4320.00" id="e1laneData"/>
    <interval begin="4320.00" end="4380.00" id="e1laneData"/>
    <interval begin="4380.00" end="4440.00" id="e1laneData"/>
    <interval begin="4440.00" end="4500.00" id="e1laneData"/>
    <interval begin="4500.00" end="4560.00" id="e1laneData"/>
    <interval begin="4560.00" end="4620.00" id="e1laneData"/>
    <interval begin="4620.00" end="4680.00" id="e1laneData"/>
    <interval begin="4680.00" end="4740.00" id="e1laneData"/>
    <interval begin="4740.00" end="4800.00" id="e1laneData"/>
    <interval begin="4800.00" end="4860.00" id="e1laneData"/>
    <interval begin="4860.00" end="4920.00" id="e1laneData"/>
    <interval begin="4920.00" end="4980.00" id="e1laneData"/>
    <interval begin="4980.00" end="5040.00" id="e1laneData"/>
    <interval begin="5040.00" end="5100.00" id="e1laneData"/>
    <interval begin="5100.00" end="5160.00" id="e1laneData"/>
    <interval begin="5160.00" end="5220.00" id="e1laneData"/>
    <interval begin="5220.00" end="5280.00" id="e1laneData"/>
    <interval begin="5280.00" end="5340.00" id="e1laneData"/>
    <interval begin="5340.00" end="5400.00" id="e1laneData"/>
    <interval begin="5400.00" end="5460.00" id="e1laneData"/>
    <interval begin="5460.00" end="5520.00" id="e1laneData"/>
    <interval begin="5520.00" end="5580.00" id="e1laneData"/>
    <interval begin="5580.00" end="5640.00" id="e1laneData"/>
    <interval begin="5640.00" end="5700.00" id="e1laneData"/>
    <interval begin="5700.00" end="5760.00" id="e1laneData"/>
    <interval begin="5760.00" end="5820.00" id="e1laneData"/>
    <interval begin="5820.00" end="5880.00" id="e1laneData"/>
    <interval begin="5880.00" end="5940.00" id="e1laneData"/>
    <interval begin="5940.00" end="6000.00" id="e1laneData"/>
    <interval begin="6000.00" end="6060.00" id="e1laneData"/>
    <interval begin="6060.00" end="6120.00" id="e1laneData"/>
    <interval begin="6120.00" end="6180.00" id="e1laneData"/>
    <interval begin="6180.00" end="6240.00" id="e1laneData"/>
    <interval begin="6240.00" end="6300.00" id="e1laneData"/>
    <interval begin="6300.00" end="6360.00" id="e1laneData"/>
    <interval begin="6360.00" end="6420.00" id="e1laneData"/>
    <interval begin="6420.00" end="6480.00" id="e1laneData"/>
    <interval begin="6480.00" end="6540.00" id="e1laneData"/>
    <interval begin="6540.00" end="6600.00" id="e1laneData"/>
    <interval begin="6600.00" end="6660.00" id="e1laneData"/>
    <interval begin="6660.00" end="6720.00" id="e1laneData"/>
    <interval begin="6720.00" end="6780.00" id="e1laneData"/>
    <interval begin="6780.00" end="6840.00" id="e1laneData"/>
    <interval begin="6840.00" end="6900.00" id="e1laneData"/>