<?xml version="1.0" encoding="UTF-8"?>

<!-- generated on 2024-06-05 18:47:32 by Eclipse SUMO GUI Version 1.19.0
<configuration xmlns:xsi="http://www.w3.org/2001/XMLSchema-instance" xsi:noNamespaceSchemaLocation="http://sumo.dlr.de/xsd/sumoConfiguration.xsd">

    <input>
        <net-file value="C:\Users\joshu\Code\sumo-str-sim\pureba\net.net.xml"/>
        <route-files value="C:\Users\joshu\Code\sumo-str-sim\pureba\net.rou.xml"/>
        <additional-files value="C:\Users\joshu\Code\sumo-str-sim\pureba\net.add.xml,C:\Users\joshu\Code\sumo-str-sim\pureba\sumoNet.med.add.xml"/>
    </input>

</configuration>
-->

<meandata xmlns:xsi="http://www.w3.org/2001/XMLSchema-instance" xsi:noNamespaceSchemaLocation="http://sumo.dlr.de/xsd/meandata_file.xsd">
    <interval begin="0.00" end="60.00" id="e2laneData">
        <edge id="E2">
            <lane id="E2_0" sampledSeconds="79.80" traveltime="124.87" overlapTraveltime="125.26" density="0.83" laneDensity="0.83" occupancy="0.41" waitingTime="0.00" timeLoss="6.98" speed="12.89" speedRelative="0.93" departed="0" arrived="0" entered="4" left="0" laneChangedFrom="0" laneChangedTo="0"/>
        </edge>
    </interval>
    <interval begin="60.00" end="120.00" id="e2laneData">
        <edge id="E2">
            <lane id="E2_0" sampledSeconds="348.08" traveltime="124.08" overlapTraveltime="124.47" density="3.60" laneDensity="3.60" occupancy="1.79" waitingTime="0.00" timeLoss="21.44" speed="12.97" speedRelative="0.93" departed="0" arrived="0" entered="5" left="0" laneChangedFrom="2" laneChangedTo="1"/>
            <lane id="E2_1" sampledSeconds="19.00" traveltime="105.66" overlapTraveltime="105.99" density="0.20" laneDensity="0.20" occupancy="0.10" waitingTime="0.00" timeLoss="0.73" speed="15.23" speedRelative="1.10" departed="0" arrived="0" entered="0" left="0" laneChangedFrom="1" laneChangedTo="2"/>
        </edge>
    </interval>
    <interval begin="120.00" end="180.00" id="e2laneData">
        <edge id="E2">
            <lane id="E2_0" sampledSeconds="552.50" traveltime="125.19" overlapTraveltime="125.58" density="5.72" laneDensity="5.72" occupancy="2.85" waitingTime="0.00" timeLoss="31.49" speed="12.86" speedRelative="0.93" departed="0" arrived="2" entered="5" left="0" laneChangedFrom="2" laneChangedTo="2"/>
            <lane id="E2_1" sampledSeconds="48.00" traveltime="113.75" overlapTraveltime="114.10" density="0.50" laneDensity="0.50" occupancy="0.25" waitingTime="0.00" timeLoss="2.36" speed="14.15" speedRelative="1.02" departed="0" arrived="0" entered="0" left="0" laneChangedFrom="2" laneChangedTo="2"/>
        </edge>
    </interval>
    <interval begin="180.00" end="240.00" id="e2laneData">
        <edge id="E2">
            <lane id="E2_0" sampledSeconds="760.69" traveltime="120.11" overlapTraveltime="120.50" density="7.88" laneDensity="7.88" occupancy="3.92" waitingTime="0.00" timeLoss="39.92" speed="13.40" speedRelative="0.96" departed="0" arrived="4" entered="13" left="0" laneChangedFrom="4" laneChangedTo="1"/>
            <lane id="E2_1" sampledSeconds="139.82" traveltime="110.73" overlapTraveltime="111.06" density="1.45" laneDensity="1.45" occupancy="0.72" waitingTime="0.00" timeLoss="5.85" speed="14.54" speedRelative="1.05" departed="0" arrived="1" entered="1" left="0" laneChangedFrom="1" laneChangedTo="4"/>
        </edge>
    </interval>
    <interval begin="240.00" end="300.00" id="e2laneData">
        <edge id="E2">
            <lane id="E2_0" sampledSeconds="1085.96" traveltime="119.50" overlapTraveltime="119.86" density="11.25" laneDensity="11.25" occupancy="5.60" waitingTime="0.00" timeLoss="51.68" speed="13.47" speedRelative="0.97" departed="0" arrived="7" entered="12" left="0" laneChangedFrom="7" laneChangedTo="5"/>
            <lane id="E2_1" sampledSeconds="334.68" traveltime="111.24" overlapTraveltime="111.59" density="3.47" laneDensity="3.47" occupancy="1.73" waitingTime="0.00" timeLoss="15.82" speed="14.47" speedRelative="1.04" departed="0" arrived="0" entered="5" left="0" laneChangedFrom="5" laneChangedTo="7"/>
        </edge>
    </interval>
    <interval begin="300.00" end="360.00" id="e2laneData">
        <edge id="E2">
            <lane id="E2_0" sampledSeconds="1442.58" traveltime="122.89" overlapTraveltime="123.25" density="14.94" laneDensity="14.94" occupancy="7.44" waitingTime="0.00" timeLoss="83.40" speed="13.10" speedRelative="0.94" departed="0" arrived="11" entered="16" left="0" laneChangedFrom="11" laneChangedTo="11"/>
            <lane id="E2_1" sampledSeconds="495.56" traveltime="112.03" overlapTraveltime="112.38" density="5.13" laneDensity="5.13" occupancy="2.56" waitingTime="0.00" timeLoss="24.80" speed="14.37" speedRelative="1.03" departed="0" arrived="3" entered="2" left="0" laneChangedFrom="11" laneChangedTo="11"/>
        </edge>
    </interval>
    <interval begin="360.00" end="420.00" id="e2laneData">
        <edge id="E2">
            <lane id="E2_0" sampledSeconds="1474.52" traveltime="127.87" overlapTraveltime="128.27" density="15.27" laneDensity="15.27" occupancy="7.62" waitingTime="0.00" timeLoss="89.49" speed="12.59" speedRelative="0.91" departed="0" arrived="8" entered="12" left="0" laneChangedFrom="14" laneChangedTo="10"/>
            <lane id="E2_1" sampledSeconds="776.89" traveltime="116.58" overlapTraveltime="116.93" density="8.05" laneDensity="8.05" occupancy="4.01" waitingTime="0.00" timeLoss="42.91" speed="13.81" speedRelative="0.99" departed="0" arrived="9" entered="6" left="0" laneChangedFrom="10" laneChangedTo="14"/>
        </edge>
    </interval>
    <interval begin="420.00" end="480.00" id="e2laneData">
        <edge id="E2">
            <lane id="E2_0" sampledSeconds="1544.89" traveltime="126.52" overlapTraveltime="126.91" density="16.00" laneDensity="16.00" occupancy="7.98" waitingTime="0.00" timeLoss="90.10" speed="12.72" speedRelative="0.92" departed="0" arrived="10" entered="13" left="0" laneChangedFrom="11" laneChangedTo="6"/>
            <lane id="E2_1" sampledSeconds="723.41" traveltime="116.46" overlapTraveltime="116.82" density="7.49" laneDensity="7.49" occupancy="3.74" waitingTime="0.00" timeLoss="33.34" speed="13.82" speedRelative="0.99" departed="0" arrived="4" entered="7" left="0" laneChangedFrom="6" laneChangedTo="11"/>
        </edge>
    </interval>
    <interval begin="480.00" end="540.00" id="e2laneData">
        <edge id="E2">
            <lane id="E2_0" sampledSeconds="1438.88" traveltime="126.86" overlapTraveltime="127.26" density="14.90" laneDensity="14.90" occupancy="7.42" waitingTime="0.00" timeLoss="88.44" speed="12.69" speedRelative="0.91" departed="0" arrived="14" entered="14" left="0" laneChangedFrom="11" laneChangedTo="12"/>
            <lane id="E2_1" sampledSeconds="1025.27" traveltime="119.31" overlapTraveltime="119.68" density="10.62" laneDensity="10.62" occupancy="5.30" waitingTime="0.00" timeLoss="67.45" speed="13.49" speedRelative="0.97" departed="0" arrived="8" entered="7" left="0" laneChangedFrom="12" laneChangedTo="11"/>
        </edge>
    </interval>
    <interval begin="540.00" end="600.00" id="e2laneData">
        <edge id="E2">
            <lane id="E2_0" sampledSeconds="1559.40" traveltime="125.56" overlapTraveltime="125.95" density="16.15" laneDensity="16.15" occupancy="8.05" waitingTime="0.00" timeLoss="97.82" speed="12.82" speedRelative="0.92" departed="0" arrived="10" entered="14" left="0" laneChangedFrom="11" laneChangedTo="10"/>
            <lane id="E2_1" sampledSeconds="1014.66" traveltime="116.74" overlapTraveltime="117.10" density="10.51" laneDensity="10.51" occupancy="5.24" waitingTime="0.00" timeLoss="67.36" speed="13.79" speedRelative="0.99" departed="0" arrived="6" entered="6" left="0" laneChangedFrom="10" laneChangedTo="11"/>
        </edge>
    </interval>
    <interval begin="600.00" end="660.00" id="e2laneData">
        <edge id="E2">
            <lane id="E2_0" sampledSeconds="1591.69" traveltime="125.04" overlapTraveltime="125.42" density="16.48" laneDensity="16.48" occupancy="8.21" waitingTime="0.00" timeLoss="101.11" speed="12.87" speedRelative="0.93" departed="0" arrived="17" entered="17" left="0" laneChangedFrom="13" laneChangedTo="12"/>
            <lane id="E2_1" sampledSeconds="933.96" traveltime="113.04" overlapTraveltime="113.40" density="9.67" laneDensity="9.67" occupancy="4.83" waitingTime="0.00" timeLoss="54.34" speed="14.24" speedRelative="1.02" departed="0" arrived="11" entered="4" left="0" laneChangedFrom="12" laneChangedTo="13"/>
        </edge>
    </interval>
    <interval begin="660.00" end="720.00" id="e2laneData">
        <edge id="E2">
            <lane id="E2_0" sampledSeconds="1537.78" traveltime="127.24" overlapTraveltime="127.62" density="15.93" laneDensity="15.93" occupancy="7.93" waitingTime="0.00" timeLoss="99.12" speed="12.65" speedRelative="0.91" departed="0" arrived="12" entered="14" left="0" laneChangedFrom="10" laneChangedTo="8"/>
            <lane id="E2_1" sampledSeconds="786.18" traveltime="113.78" overlapTraveltime="114.13" density="8.14" laneDensity="8.14" occupancy="4.06" waitingTime="0.00" timeLoss="39.48" speed="14.14" speedRelative="1.02" departed="0" arrived="6" entered="5" left="0" laneChangedFrom="8" laneChangedTo="10"/>
        </edge>
    </interval>
    <interval begin="720.00" end="780.00" id="e2laneData">
        <edge id="E2">
            <lane id="E2_0" sampledSeconds="1491.38" traveltime="129.32" overlapTraveltime="129.70" density="15.45" laneDensity="15.45" occupancy="7.69" waitingTime="0.00" timeLoss="100.87" speed="12.45" speedRelative="0.90" departed="0" arrived="12" entered="15" left="0" laneChangedFrom="13" laneChangedTo="9"/>
            <lane id="E2_1" sampledSeconds="905.36" traveltime="121.99" overlapTraveltime="122.35" density="9.38" laneDensity="9.38" occupancy="4.68" waitingTime="0.00" timeLoss="82.06" speed="13.19" speedRelative="0.95" departed="0" arrived="4" entered="8" left="0" laneChangedFrom="9" laneChangedTo="13"/>
        </edge>
    </interval>
    <interval begin="780.00" end="840.00" id="e2laneData">
        <edge id="E2">
            <lane id="E2_0" sampledSeconds="1529.74" traveltime="130.69" overlapTraveltime="131.09" density="15.84" laneDensity="15.84" occupancy="7.89" waitingTime="0.00" timeLoss="118.40" speed="12.32" speedRelative="0.89" departed="0" arrived="13" entered="16" left="0" laneChangedFrom="13" laneChangedTo="12"/>
            <lane id="E2_1" sampledSeconds="1104.43" traveltime="116.57" overlapTraveltime="116.94" density="11.44" laneDensity="11.44" occupancy="5.71" waitingTime="0.00" timeLoss="82.93" speed="13.81" speedRelative="0.99" departed="0" arrived="7" entered="2" left="0" laneChangedFrom="12" laneChangedTo="13"/>
        </edge>
    </interval>
    <interval begin="840.00" end="900.00" id="e2laneData">
        <edge id="E2">
            <lane id="E2_0" sampledSeconds="1510.36" traveltime="128.40" overlapTraveltime="128.79" density="15.64" laneDensity="15.64" occupancy="7.80" waitingTime="0.00" timeLoss="116.22" speed="12.53" speedRelative="0.90" departed="0" arrived="14" entered="12" left="0" laneChangedFrom="9" laneChangedTo="9"/>
            <lane id="E2_1" sampledSeconds="1072.76" traveltime="116.79" overlapTraveltime="117.14" density="11.11" laneDensity="11.11" occupancy="5.54" waitingTime="0.00" timeLoss="84.06" speed="13.78" speedRelative="0.99" departed="0" arrived="11" entered="5" left="0" laneChangedFrom="9" laneChangedTo="9"/>
        </edge>
    </interval>
    <interval begin="900.00" end="960.00" id="e2laneData">
        <edge id="E2">
            <lane id="E2_0" sampledSeconds="1332.10" traveltime="128.47" overlapTraveltime="128.87" density="13.80" laneDensity="13.80" occupancy="6.88" waitingTime="0.00" timeLoss="93.64" speed="12.53" speedRelative="0.90" departed="0" arrived="9" entered="10" left="0" laneChangedFrom="7" laneChangedTo="5"/>
            <lane id="E2_1" sampledSeconds="630.65" traveltime="115.91" overlapTraveltime="116.24" density="6.53" laneDensity="6.53" occupancy="3.25" waitingTime="0.00" timeLoss="57.41" speed="13.89" speedRelative="1.00" departed="0" arrived="6" entered="9" left="0" laneChangedFrom="5" laneChangedTo="7"/>
        </edge>
    </interval>
    <interval begin="960.00" end="1020.00" id="e2laneData">
        <edge id="E2">
            <lane id="E2_0" sampledSeconds="1492.44" traveltime="132.99" overlapTraveltime="133.37" density="15.46" laneDensity="15.46" occupancy="7.70" waitingTime="0.00" timeLoss="127.46" speed="12.10" speedRelative="0.87" departed="0" arrived="14" entered="13" left="0" laneChangedFrom="7" laneChangedTo="7"/>
            <lane id="E2_1" sampledSeconds="833.58" traveltime="123.59" overlapTraveltime="123.94" density="8.63" laneDensity="8.63" occupancy="4.31" waitingTime="0.00" timeLoss="101.88" speed="13.03" speedRelative="0.94" departed="0" arrived="6" entered="6" left="0" laneChangedFrom="7" laneChangedTo="7"/>
        </edge>
    </interval>
    <interval begin="1020.00" end="1080.00" id="e2laneData">
        <edge id="E2">
            <lane id="E2_0" sampledSeconds="1541.55" traveltime="130.52" overlapTraveltime="130.91" density="15.96" laneDensity="15.96" occupancy="7.95" waitingTime="0.00" timeLoss="132.94" speed="12.33" speedRelative="0.89" departed="0" arrived="10" entered="14" left="0" laneChangedFrom="11" laneChangedTo="9"/>
            <lane id="E2_1" sampledSeconds="982.23" traveltime="116.29" overlapTraveltime="116.65" density="10.17" laneDensity="10.17" occupancy="5.08" waitingTime="0.00" timeLoss="66.34" speed="13.84" speedRelative="1.00" departed="0" arrived="4" entered="2" left="0" laneChangedFrom="9" laneChangedTo="11"/>
        </edge>
    </interval>
    <interval begin="1080.00" end="1140.00" id="e2laneData">
        <edge id="E2">
            <lane id="E2_0" sampledSeconds="1537.61" traveltime="130.43" overlapTraveltime="130.84" density="15.92" laneDensity="15.92" occupancy="7.94" waitingTime="0.00" timeLoss="130.32" speed="12.34" speedRelative="0.89" departed="0" arrived="14" entered="13" left="0" laneChangedFrom="9" laneChangedTo="10"/>
            <lane id="E2_1" sampledSeconds="836.48" traveltime="118.70" overlapTraveltime="119.06" density="8.66" laneDensity="8.66" occupancy="4.32" waitingTime="0.00" timeLoss="77.34" speed="13.56" speedRelative="0.98" departed="0" arrived="10" entered="5" left="0" laneChangedFrom="10" laneChangedTo="9"/>
        </edge>
    </interval>
    <interval begin="1140.00" end="1200.00" id="e2laneData">
        <edge id="E2">
            <lane id="E2_0" sampledSeconds="1332.03" traveltime="126.81" overlapTraveltime="127.17" density="13.79" laneDensity="13.79" occupancy="6.87" waitingTime="0.00" timeLoss="77.65" speed="12.69" speedRelative="0.91" departed="0" arrived="14" entered="12" left="0" laneChangedFrom="15" laneChangedTo="12"/>
            <lane id="E2_1" sampledSeconds="663.63" traveltime="116.36" overlapTraveltime="116.71" density="6.87" laneDensity="6.87" occupancy="3.43" waitingTime="0.00" timeLoss="37.49" speed="13.83" speedRelative="1.00" departed="0" arrived="4" entered="6" left="0" laneChangedFrom="12" laneChangedTo="15"/>
        </edge>
    </interval>
    <interval begin="1200.00" end="1260.00" id="e2laneData">
        <edge id="E2">
            <lane id="E2_0" sampledSeconds="1368.79" traveltime="131.03" overlapTraveltime="131.44" density="14.18" laneDensity="14.18" occupancy="7.07" waitingTime="0.00" timeLoss="83.17" speed="12.28" speedRelative="0.88" departed="0" arrived="11" entered="11" left="0" laneChangedFrom="9" laneChangedTo="13"/>
            <lane id="E2_1" sampledSeconds="991.92" traveltime="116.84" overlapTraveltime="117.20" density="10.27" laneDensity="10.27" occupancy="5.12" waitingTime="0.00" timeLoss="70.08" speed="13.77" speedRelative="0.99" departed="0" arrived="5" entered="10" left="0" laneChangedFrom="13" laneChangedTo="9"/>
        </edge>
    </interval>
    <interval begin="1260.00" end="1320.00" id="e2laneData">
        <edge id="E2">
            <lane id="E2_0" sampledSeconds="1563.27" traveltime="130.30" overlapTraveltime="130.69" density="16.19" laneDensity="16.19" occupancy="8.06" waitingTime="0.00" timeLoss="119.41" speed="12.35" speedRelative="0.89" departed="0" arrived="10" entered="18" left="0" laneChangedFrom="12" laneChangedTo="7"/>
            <lane id="E2_1" sampledSeconds="877.82" traveltime="124.85" overlapTraveltime="125.23" density="9.09" laneDensity="9.09" occupancy="4.54" waitingTime="0.00" timeLoss="102.26" speed="12.89" speedRelative="0.93" departed="0" arrived="5" entered="1" left="0" laneChangedFrom="7" laneChangedTo="12"/>
        </edge>
    </interval>
    <interval begin="1320.00" end="1380.00" id="e2laneData">
        <edge id="E2">
            <lane id="E2_0" sampledSeconds="1651.56" traveltime="128.65" overlapTraveltime="129.06" density="17.10" laneDensity="17.10" occupancy="8.52" waitingTime="0.00" timeLoss="127.64" speed="12.51" speedRelative="0.90" departed="0" arrived="11" entered="18" left="0" laneChangedFrom="12" laneChangedTo="8"/>
            <lane id="E2_1" sampledSeconds="1023.42" traveltime="119.57" overlapTraveltime="119.92" density="10.60" laneDensity="10.60" occupancy="5.29" waitingTime="0.00" timeLoss="83.61" speed="13.46" speedRelative="0.97" departed="0" arrived="9" entered="4" left="0" laneChangedFrom="8" laneChangedTo="12"/>
        </edge>
    </interval>
    <interval begin="1380.00" end="1440.00" id="e2laneData">
        <edge id="E2">
            <lane id="E2_0" sampledSeconds="1618.55" traveltime="126.27" overlapTraveltime="126.68" density="16.76" laneDensity="16.76" occupancy="8.36" waitingTime="0.00" timeLoss="124.20" speed="12.74" speedRelative="0.92" departed="0" arrived="14" entered="11" left="0" laneChangedFrom="11" laneChangedTo="10"/>
            <lane id="E2_1" sampledSeconds="1008.86" traveltime="119.84" overlapTraveltime="120.20" density="10.45" laneDensity="10.45" occupancy="5.21" waitingTime="0.00" timeLoss="89.12" speed="13.43" speedRelative="0.97" departed="0" arrived="9" entered="8" left="0" laneChangedFrom="10" laneChangedTo="11"/>
        </edge>
    </interval>
    <interval begin="1440.00" end="1500.00" id="e2laneData">
        <edge id="E2">
            <lane id="E2_0" sampledSeconds="1457.17" traveltime="129.66" overlapTraveltime="130.03" density="15.09" laneDensity="15.09" occupancy="7.52" waitingTime="0.00" timeLoss="115.08" speed="12.42" speedRelative="0.89" departed="0" arrived="14" entered="12" left="0" laneChangedFrom="9" laneChangedTo="6"/>
            <lane id="E2_1" sampledSeconds="865.28" traveltime="118.83" overlapTraveltime="119.19" density="8.96" laneDensity="8.96" occupancy="4.47" waitingTime="0.00" timeLoss="62.19" speed="13.54" speedRelative="0.98" departed="0" arrived="8" entered="10" left="0" laneChangedFrom="6" laneChangedTo="9"/>
        </edge>
    </interval>
    <interval begin="1500.00" end="1560.00" id="e2laneData">
        <edge id="E2">
            <lane id="E2_0" sampledSeconds="1417.78" traveltime="133.70" overlapTraveltime="134.10" density="14.68" laneDensity="14.68" occupancy="7.32" waitingTime="0.00" timeLoss="118.68" speed="12.04" speedRelative="0.87" departed="0" arrived="8" entered="11" left="0" laneChangedFrom="14" laneChangedTo="16"/>
            <lane id="E2_1" sampledSeconds="1045.73" traveltime="116.93" overlapTraveltime="117.28" density="10.83" laneDensity="10.83" occupancy="5.41" waitingTime="0.00" timeLoss="74.08" speed="13.76" speedRelative="0.99" departed="0" arrived="8" entered="5" left="0" laneChangedFrom="16" laneChangedTo="14"/>
        </edge>
    </interval>
    <interval begin="1560.00" end="1620.00" id="e2laneData">
        <edge id="E2">
            <lane id="E2_0" sampledSeconds="1506.15" traveltime="130.51" overlapTraveltime="130.89" density="15.60" laneDensity="15.60" occupancy="7.77" waitingTime="0.00" timeLoss="110.76" speed="12.33" speedRelative="0.89" departed="0" arrived="14" entered="15" left="0" laneChangedFrom="19" laneChangedTo="14"/>
            <lane id="E2_1" sampledSeconds="995.21" traveltime="116.86" overlapTraveltime="117.21" density="10.31" laneDensity="10.31" occupancy="5.14" waitingTime="0.00" timeLoss="67.31" speed="13.77" speedRelative="0.99" departed="0" arrived="8" entered="4" left="0" laneChangedFrom="14" laneChangedTo="19"/>
        </edge>
    </interval>
    <interval begin="1620.00" end="1680.00" id="e2laneData">
        <edge id="E2">
            <lane id="E2_0" sampledSeconds="1445.38" traveltime="129.49" overlapTraveltime="129.90" density="14.97" laneDensity="14.97" occupancy="7.45" waitingTime="0.00" timeLoss="95.70" speed="12.43" speedRelative="0.89" departed="0" arrived="10" entered="17" left="0" laneChangedFrom="16" laneChangedTo="15"/>
            <lane id="E2_1" sampledSeconds="782.27" traveltime="116.33" overlapTraveltime="116.69" density="8.10" laneDensity="8.10" occupancy="4.04" waitingTime="0.00" timeLoss="48.99" speed="13.83" speedRelative="1.00" departed="0" arrived="9" entered="3" left="0" laneChangedFrom="15" laneChangedTo="16"/>
        </edge>
    </interval>
    <interval begin="1680.00" end="1740.00" id="e2laneData">
        <edge id="E2">
            <lane id="E2_0" sampledSeconds="1654.18" traveltime="131.85" overlapTraveltime="132.23" density="17.13" laneDensity="17.13" occupancy="8.52" waitingTime="0.00" timeLoss="122.68" speed="12.21" speedRelative="0.88" departed="0" arrived="17" entered="18" left="0" laneChangedFrom="18" laneChangedTo="14"/>
            <lane id="E2_1" sampledSeconds="836.53" traveltime="118.35" overlapTraveltime="118.70" density="8.66" laneDensity="8.66" occupancy="4.33" waitingTime="0.00" timeLoss="49.93" speed="13.60" speedRelative="0.98" departed="0" arrived="5" entered="3" left="0" laneChangedFrom="14" laneChangedTo="18"/>
        </edge>
    </interval>
    <interval begin="1740.00" end="1800.00" id="e2laneData">
        <edge id="E2">
            <lane id="E2_0" sampledSeconds="1699.74" traveltime="133.72" overlapTraveltime="134.12" density="17.60" laneDensity="17.60" occupancy="8.77" waitingTime="0.00" timeLoss="118.52" speed="12.04" speedRelative="0.87" departed="0" arrived="11" entered="18" left="0" laneChangedFrom="14" laneChangedTo="14"/>
            <lane id="E2_1" sampledSeconds="1168.84" traveltime="121.78" overlapTraveltime="122.16" density="12.10" laneDensity="12.10" occupancy="6.04" waitingTime="0.00" timeLoss="79.80" speed="13.22" speedRelative="0.95" departed="0" arrived="3" entered="8" left="0" laneChangedFrom="14" laneChangedTo="14"/>
        </edge>
    </interval>
    <interval begin="1800.00" end="1860.00" id="e2laneData">
        <edge id="E2">
            <lane id="E2_0" sampledSeconds="1681.83" traveltime="131.96" overlapTraveltime="132.38" density="17.42" laneDensity="17.42" occupancy="8.68" waitingTime="0.00" timeLoss="109.35" speed="12.19" speedRelative="0.88" departed="0" arrived="14" entered="14" left="0" laneChangedFrom="15" laneChangedTo="13"/>
            <lane id="E2_1" sampledSeconds="1132.04" traveltime="120.57" overlapTraveltime="120.95" density="11.72" laneDensity="11.72" occupancy="5.85" waitingTime="0.00" timeLoss="77.91" speed="13.35" speedRelative="0.96" departed="0" arrived="8" entered="6" left="0" laneChangedFrom="13" laneChangedTo="15"/>
        </edge>
    </interval>
    <interval begin="1860.00" end="1920.00" id="e2laneData">
        <edge id="E2">
            <lane id="E2_0" sampledSeconds="1534.79" traveltime="129.31" overlapTraveltime="129.71" density="15.89" laneDensity="15.89" occupancy="7.93" waitingTime="0.00" timeLoss="109.40" speed="12.45" speedRelative="0.90" departed="0" arrived="13" entered="9" left="0" laneChangedFrom="12" laneChangedTo="10"/>
            <lane id="E2_1" sampledSeconds="994.61" traveltime="116.12" overlapTraveltime="116.49" density="10.30" laneDensity="10.30" occupancy="5.14" waitingTime="0.00" timeLoss="61.16" speed="13.86" speedRelative="1.00" departed="0" arrived="11" entered="4" left="0" laneChangedFrom="10" laneChangedTo="12"/>
        </edge>
    </interval>
    <interval begin="1920.00" end="1980.00" id="e2laneData">
        <edge id="E2">
            <lane id="E2_0" sampledSeconds="1479.47" traveltime="127.48" overlapTraveltime="127.87" density="15.32" laneDensity="15.32" occupancy="7.63" waitingTime="0.00" timeLoss="92.50" speed="12.62" speedRelative="0.91" departed="0" arrived="13" entered="14" left="0" laneChangedFrom="13" laneChangedTo="11"/>
            <lane id="E2_1" sampledSeconds="735.02" traveltime="118.33" overlapTraveltime="118.69" density="7.61" laneDensity="7.61" occupancy="3.79" waitingTime="0.00" timeLoss="62.48" speed="13.60" speedRelative="0.98" departed="0" arrived="9" entered="6" left="0" laneChangedFrom="11" laneChangedTo="13"/>
        </edge>
    </interval>
    <interval begin="1980.00" end="2040.00" id="e2laneData">
        <edge id="E2">
            <lane id="E2_0" sampledSeconds="1468.87" traveltime="128.99" overlapTraveltime="129.39" density="15.21" laneDensity="15.21" occupancy="7.58" waitingTime="0.00" timeLoss="91.18" speed="12.48" speedRelative="0.90" departed="0" arrived="10" entered="15" left="0" laneChangedFrom="14" laneChangedTo="9"/>
            <lane id="E2_1" sampledSeconds="730.38" traveltime="116.13" overlapTraveltime="116.48" density="7.56" laneDensity="7.56" occupancy="3.77" waitingTime="0.00" timeLoss="45.19" speed="13.86" speedRelative="1.00" departed="0" arrived="7" entered="4" left="0" laneChangedFrom="9" laneChangedTo="14"/>
        </edge>
    </interval>
    <interval begin="2040.00" end="2100.00" id="e2laneData">
        <edge id="E2">
            <lane id="E2_0" sampledSeconds="1464.43" traveltime="129.41" overlapTraveltime="129.80" density="15.17" laneDensity="15.17" occupancy="7.55" waitingTime="0.00" timeLoss="94.06" speed="12.44" speedRelative="0.90" departed="0" arrived="11" entered="17" left="0" laneChangedFrom="14" laneChangedTo="9"/>
            <lane id="E2_1" sampledSeconds="893.25" traveltime="114.89" overlapTraveltime="115.25" density="9.25" laneDensity="9.25" occupancy="4.62" waitingTime="0.00" timeLoss="55.09" speed="14.01" speedRelative="1.01" departed="0" arrived="7" entered="5" left="0" laneChangedFrom="9" laneChangedTo="14"/>
        </edge>
    </interval>
    <interval begin="2100.00" end="2160.00" id="e2laneData">
        <edge id="E2">
            <lane id="E2_0" sampledSeconds="1481.61" traveltime="129.37" overlapTraveltime="129.75" density="15.34" laneDensity="15.34" occupancy="7.64" waitingTime="0.00" timeLoss="103.87" speed="12.44" speedRelative="0.90" departed="0" arrived="15" entered="15" left="0" laneChangedFrom="15" laneChangedTo="17"/>
            <lane id="E2_1" sampledSeconds="838.57" traveltime="117.23" overlapTraveltime="117.59" density="8.68" laneDensity="8.68" occupancy="4.34" waitingTime="0.00" timeLoss="60.62" speed="13.73" speedRelative="0.99" departed="0" arrived="4" entered="2" left="0" laneChangedFrom="17" laneChangedTo="15"/>
        </edge>
    </interval>
    <interval begin="2160.00" end="2220.00" id="e2laneData">
        <edge id="E2">
            <lane id="E2_0" sampledSeconds="1388.74" traveltime="127.52" overlapTraveltime="127.91" density="14.38" laneDensity="14.38" occupancy="7.17" waitingTime="0.00" timeLoss="94.04" speed="12.62" speedRelative="0.91" departed="0" arrived="10" entered="11" left="0" laneChangedFrom="15" laneChangedTo="9"/>
            <lane id="E2_1" sampledSeconds="986.42" traveltime="119.52" overlapTraveltime="119.86" density="10.22" laneDensity="10.22" occupancy="5.10" waitingTime="0.00" timeLoss="64.50" speed="13.47" speedRelative="0.97" departed="0" arrived="10" entered="5" left="0" laneChangedFrom="9" laneChangedTo="15"/>
        </edge>
    </interval>
    <interval begin="2220.00" end="2280.00" id="e2laneData">
        <edge id="E2">
            <lane id="E2_0" sampledSeconds="1467.41" traveltime="128.86" overlapTraveltime="129.26" density="15.20" laneDensity="15.20" occupancy="7.58" waitingTime="0.00" timeLoss="112.50" speed="12.49" speedRelative="0.90" departed="0" arrived="9" entered="12" left="0" laneChangedFrom="8" laneChangedTo="9"/>
            <lane id="E2_1" sampledSeconds="769.28" traveltime="119.91" overlapTraveltime="120.28" density="7.97" laneDensity="7.97" occupancy="3.98" waitingTime="0.00" timeLoss="54.31" speed="13.42" speedRelative="0.97" departed="0" arrived="4" entered="4" left="0" laneChangedFrom="9" laneChangedTo="8"/>
        </edge>
    </interval>
    <interval begin="2280.00" end="2340.00" id="e2laneData">
        <edge id="E2">
            <lane id="E2_0" sampledSeconds="1301.92" traveltime="127.84" overlapTraveltime="128.22" density="13.48" laneDensity="13.48" occupancy="6.71" waitingTime="0.00" timeLoss="75.22" speed="12.59" speedRelative="0.91" departed="0" arrived="13" entered="13" left="0" laneChangedFrom="13" laneChangedTo="10"/>
            <lane id="E2_1" sampledSeconds="771.85" traveltime="116.67" overlapTraveltime="117.06" density="7.99" laneDensity="7.99" occupancy="3.98" waitingTime="0.00" timeLoss="38.78" speed="13.79" speedRelative="0.99" departed="0" arrived="10" entered="5" left="0" laneChangedFrom="10" laneChangedTo="13"/>
        </edge>
    </interval>
    <interval begin="2340.00" end="2400.00" id="e2laneData">
        <edge id="E2">
            <lane id="E2_0" sampledSeconds="1498.88" traveltime="129.50" overlapTraveltime="129.89" density="15.52" laneDensity="15.52" occupancy="7.73" waitingTime="0.00" timeLoss="88.14" speed="12.43" speedRelative="0.89" departed="0" arrived="11" entered="14" left="0" laneChangedFrom="10" laneChangedTo="10"/>
            <lane id="E2_1" sampledSeconds="796.91" traveltime="116.24" overlapTraveltime="116.61" density="8.25" laneDensity="8.25" occupancy="4.11" waitingTime="0.00" timeLoss="45.22" speed="13.84" speedRelative="1.00" departed="0" arrived="6" entered="8" left="0" laneChangedFrom="10" laneChangedTo="10"/>
        </edge>
    </interval>