<?xml version="1.0" encoding="UTF-8"?>

<!-- generated on 2024-06-11 13:43:22 by Eclipse SUMO GUI Version 1.19.0
<configuration xmlns:xsi="http://www.w3.org/2001/XMLSchema-instance" xsi:noNamespaceSchemaLocation="http://sumo.dlr.de/xsd/sumoConfiguration.xsd">

    <input>
        <net-file value="C:\Users\joshu\Code\sumo-str-sim\pureba\net.net.xml"/>
        <route-files value="C:\Users\joshu\Code\sumo-str-sim\pureba\net.rou.xml"/>
        <additional-files value="C:\Users\joshu\Code\sumo-str-sim\pureba\net.add.xml,C:\Users\joshu\Code\sumo-str-sim\pureba\sumoNet.med.add.xml"/>
    </input>

</configuration>
-->

<meandata xmlns:xsi="http://www.w3.org/2001/XMLSchema-instance" xsi:noNamespaceSchemaLocation="http://sumo.dlr.de/xsd/meandata_file.xsd">
    <interval begin="0.00" end="60.00" id="e2laneData">
        <edge id="E2">
            <lane id="E2_0" sampledSeconds="79.80" traveltime="124.87" overlapTraveltime="125.26" density="0.83" laneDensity="0.83" occupancy="0.41" waitingTime="0.00" timeLoss="6.98" speed="12.89" speedRelative="0.93" departed="0" arrived="0" entered="4" left="0" laneChangedFrom="0" laneChangedTo="0"/>
        </edge>
    </interval>
    <interval begin="60.00" end="120.00" id="e2laneData">
        <edge id="E2">
            <lane id="E2_0" sampledSeconds="348.08" traveltime="124.08" overlapTraveltime="124.47" density="3.60" laneDensity="3.60" occupancy="1.79" waitingTime="0.00" timeLoss="21.44" speed="12.97" speedRelative="0.93" departed="0" arrived="0" entered="5" left="0" laneChangedFrom="2" laneChangedTo="1"/>
            <lane id="E2_1" sampledSeconds="19.00" traveltime="105.66" overlapTraveltime="105.99" density="0.20" laneDensity="0.20" occupancy="0.10" waitingTime="0.00" timeLoss="0.73" speed="15.23" speedRelative="1.10" departed="0" arrived="0" entered="0" left="0" laneChangedFrom="1" laneChangedTo="2"/>
        </edge>
    </interval>
    <interval begin="120.00" end="180.00" id="e2laneData">
        <edge id="E2">
            <lane id="E2_0" sampledSeconds="552.50" traveltime="125.19" overlapTraveltime="125.58" density="5.72" laneDensity="5.72" occupancy="2.85" waitingTime="0.00" timeLoss="31.49" speed="12.86" speedRelative="0.93" departed="0" arrived="2" entered="5" left="0" laneChangedFrom="2" laneChangedTo="2"/>
            <lane id="E2_1" sampledSeconds="48.00" traveltime="113.75" overlapTraveltime="114.10" density="0.50" laneDensity="0.50" occupancy="0.25" waitingTime="0.00" timeLoss="2.36" speed="14.15" speedRelative="1.02" departed="0" arrived="0" entered="0" left="0" laneChangedFrom="2" laneChangedTo="2"/>
        </edge>
    </interval>
    <interval begin="180.00" end="240.00" id="e2laneData">
        <edge id="E2">
            <lane id="E2_0" sampledSeconds="758.35" traveltime="119.83" overlapTraveltime="120.22" density="7.85" laneDensity="7.85" occupancy="3.91" waitingTime="0.00" timeLoss="39.41" speed="13.43" speedRelative="0.97" departed="0" arrived="4" entered="12" left="0" laneChangedFrom="4" laneChangedTo="1"/>
            <lane id="E2_1" sampledSeconds="65.66" traveltime="106.55" overlapTraveltime="106.88" density="0.68" laneDensity="0.68" occupancy="0.34" waitingTime="0.00" timeLoss="2.72" speed="15.10" speedRelative="1.09" departed="0" arrived="1" entered="0" left="0" laneChangedFrom="1" laneChangedTo="4"/>
        </edge>
    </interval>
    <interval begin="240.00" end="300.00" id="e2laneData">
        <edge id="E2">
            <lane id="E2_0" sampledSeconds="1049.35" traveltime="120.64" overlapTraveltime="121.02" density="10.87" laneDensity="10.87" occupancy="5.42" waitingTime="0.00" timeLoss="55.23" speed="13.34" speedRelative="0.96" departed="0" arrived="7" entered="13" left="0" laneChangedFrom="5" laneChangedTo="5"/>
            <lane id="E2_1" sampledSeconds="234.95" traveltime="107.80" overlapTraveltime="108.14" density="2.43" laneDensity="2.43" occupancy="1.21" waitingTime="0.00" timeLoss="9.55" speed="14.93" speedRelative="1.07" departed="0" arrived="0" entered="3" left="0" laneChangedFrom="5" laneChangedTo="5"/>
        </edge>
    </interval>
    <interval begin="300.00" end="360.00" id="e2laneData">
        <edge id="E2">
            <lane id="E2_0" sampledSeconds="1381.28" traveltime="123.37" overlapTraveltime="123.73" density="14.30" laneDensity="14.30" occupancy="7.12" waitingTime="0.00" timeLoss="84.49" speed="13.05" speedRelative="0.94" departed="0" arrived="10" entered="16" left="0" laneChangedFrom="13" laneChangedTo="7"/>
            <lane id="E2_1" sampledSeconds="479.97" traveltime="111.76" overlapTraveltime="112.10" density="4.97" laneDensity="4.97" occupancy="2.48" waitingTime="0.00" timeLoss="23.42" speed="14.40" speedRelative="1.04" departed="0" arrived="1" entered="2" left="0" laneChangedFrom="7" laneChangedTo="13"/>
        </edge>
    </interval>
    <interval begin="360.00" end="420.00" id="e2laneData">
        <edge id="E2">
            <lane id="E2_0" sampledSeconds="1376.71" traveltime="128.07" overlapTraveltime="128.46" density="14.26" laneDensity="14.26" occupancy="7.11" waitingTime="0.00" timeLoss="78.89" speed="12.57" speedRelative="0.90" departed="0" arrived="9" entered="11" left="0" laneChangedFrom="9" laneChangedTo="7"/>
            <lane id="E2_1" sampledSeconds="769.89" traveltime="116.62" overlapTraveltime="116.98" density="7.97" laneDensity="7.97" occupancy="3.98" waitingTime="0.00" timeLoss="45.98" speed="13.80" speedRelative="0.99" departed="0" arrived="8" entered="6" left="0" laneChangedFrom="7" laneChangedTo="9"/>
        </edge>
    </interval>
    <interval begin="420.00" end="480.00" id="e2laneData">
        <edge id="E2">
            <lane id="E2_0" sampledSeconds="1486.31" traveltime="126.15" overlapTraveltime="126.53" density="15.39" laneDensity="15.39" occupancy="7.67" waitingTime="0.00" timeLoss="85.14" speed="12.76" speedRelative="0.92" departed="0" arrived="10" entered="14" left="0" laneChangedFrom="5" laneChangedTo="5"/>
            <lane id="E2_1" sampledSeconds="710.14" traveltime="119.33" overlapTraveltime="119.69" density="7.35" laneDensity="7.35" occupancy="3.67" waitingTime="0.00" timeLoss="35.17" speed="13.49" speedRelative="0.97" departed="0" arrived="3" entered="5" left="0" laneChangedFrom="5" laneChangedTo="5"/>
        </edge>
    </interval>
    <interval begin="480.00" end="540.00" id="e2laneData">
        <edge id="E2">
            <lane id="E2_0" sampledSeconds="1499.13" traveltime="125.81" overlapTraveltime="126.20" density="15.53" laneDensity="15.53" occupancy="7.74" waitingTime="0.00" timeLoss="89.87" speed="12.79" speedRelative="0.92" departed="0" arrived="14" entered="10" left="0" laneChangedFrom="9" laneChangedTo="11"/>
            <lane id="E2_1" sampledSeconds="837.74" traveltime="117.84" overlapTraveltime="118.22" density="8.68" laneDensity="8.68" occupancy="4.33" waitingTime="0.00" timeLoss="50.56" speed="13.66" speedRelative="0.98" departed="0" arrived="6" entered="8" left="0" laneChangedFrom="11" laneChangedTo="9"/>
        </edge>
    </interval>
    <interval begin="540.00" end="600.00" id="e2laneData">
        <edge id="E2">
            <lane id="E2_0" sampledSeconds="1454.22" traveltime="126.84" overlapTraveltime="127.22" density="15.06" laneDensity="15.06" occupancy="7.49" waitingTime="0.00" timeLoss="91.00" speed="12.69" speedRelative="0.91" departed="0" arrived="14" entered="16" left="0" laneChangedFrom="10" laneChangedTo="8"/>
            <lane id="E2_1" sampledSeconds="770.68" traveltime="115.04" overlapTraveltime="115.40" density="7.98" laneDensity="7.98" occupancy="3.98" waitingTime="0.00" timeLoss="45.77" speed="13.99" speedRelative="1.01" departed="0" arrived="5" entered="3" left="0" laneChangedFrom="8" laneChangedTo="10"/>
        </edge>
    </interval>
    <interval begin="600.00" end="660.00" id="e2laneData">
        <edge id="E2">
            <lane id="E2_0" sampledSeconds="1420.60" traveltime="126.93" overlapTraveltime="127.32" density="14.71" laneDensity="14.71" occupancy="7.33" waitingTime="0.00" timeLoss="86.51" speed="12.68" speedRelative="0.91" departed="0" arrived="14" entered="10" left="0" laneChangedFrom="9" laneChangedTo="10"/>
            <lane id="E2_1" sampledSeconds="700.63" traveltime="114.23" overlapTraveltime="114.58" density="7.26" laneDensity="7.26" occupancy="3.62" waitingTime="0.00" timeLoss="43.28" speed="14.09" speedRelative="1.01" departed="0" arrived="7" entered="2" left="0" laneChangedFrom="10" laneChangedTo="9"/>
        </edge>
    </interval>
    <interval begin="660.00" end="720.00" id="e2laneData">
        <edge id="E2">
            <lane id="E2_0" sampledSeconds="1281.61" traveltime="126.61" overlapTraveltime="127.00" density="13.27" laneDensity="13.27" occupancy="6.61" waitingTime="0.00" timeLoss="73.99" speed="12.71" speedRelative="0.92" departed="0" arrived="14" entered="11" left="0" laneChangedFrom="11" laneChangedTo="11"/>
            <lane id="E2_1" sampledSeconds="463.46" traveltime="114.25" overlapTraveltime="114.61" density="4.80" laneDensity="4.80" occupancy="2.40" waitingTime="0.00" timeLoss="25.87" speed="14.09" speedRelative="1.01" departed="0" arrived="4" entered="1" left="0" laneChangedFrom="11" laneChangedTo="11"/>
        </edge>
    </interval>
    <interval begin="720.00" end="780.00" id="e2laneData">
        <edge id="E2">
            <lane id="E2_0" sampledSeconds="1235.23" traveltime="125.85" overlapTraveltime="126.22" density="12.79" laneDensity="12.79" occupancy="6.37" waitingTime="0.00" timeLoss="69.46" speed="12.79" speedRelative="0.92" departed="0" arrived="12" entered="16" left="0" laneChangedFrom="8" laneChangedTo="8"/>
            <lane id="E2_1" sampledSeconds="468.70" traveltime="111.99" overlapTraveltime="112.34" density="4.85" laneDensity="4.85" occupancy="2.42" waitingTime="0.00" timeLoss="24.59" speed="14.37" speedRelative="1.03" departed="0" arrived="1" entered="4" left="0" laneChangedFrom="8" laneChangedTo="8"/>
        </edge>
    </interval>
    <interval begin="780.00" end="840.00" id="e2laneData">
        <edge id="E2">
            <lane id="E2_0" sampledSeconds="1418.38" traveltime="126.04" overlapTraveltime="126.43" density="14.69" laneDensity="14.69" occupancy="7.32" waitingTime="0.00" timeLoss="93.56" speed="12.77" speedRelative="0.92" departed="0" arrived="8" entered="14" left="0" laneChangedFrom="15" laneChangedTo="12"/>
            <lane id="E2_1" sampledSeconds="723.26" traveltime="112.50" overlapTraveltime="112.87" density="7.49" laneDensity="7.49" occupancy="3.74" waitingTime="0.00" timeLoss="43.03" speed="14.30" speedRelative="1.03" departed="0" arrived="2" entered="2" left="0" laneChangedFrom="12" laneChangedTo="15"/>
        </edge>
    </interval>
    <interval begin="840.00" end="900.00" id="e2laneData">
        <edge id="E2">
            <lane id="E2_0" sampledSeconds="1512.00" traveltime="125.34" overlapTraveltime="125.71" density="15.66" laneDensity="15.66" occupancy="7.80" waitingTime="0.00" timeLoss="98.96" speed="12.84" speedRelative="0.92" departed="0" arrived="14" entered="14" left="0" laneChangedFrom="7" laneChangedTo="8"/>
            <lane id="E2_1" sampledSeconds="629.80" traveltime="118.52" overlapTraveltime="118.85" density="6.52" laneDensity="6.52" occupancy="3.25" waitingTime="0.00" timeLoss="40.83" speed="13.58" speedRelative="0.98" departed="0" arrived="9" entered="5" left="0" laneChangedFrom="8" laneChangedTo="7"/>
        </edge>
    </interval>
    <interval begin="900.00" end="960.00" id="e2laneData">
        <edge id="E2">
            <lane id="E2_0" sampledSeconds="1477.52" traveltime="124.77" overlapTraveltime="125.16" density="15.30" laneDensity="15.30" occupancy="7.63" waitingTime="0.00" timeLoss="82.37" speed="12.90" speedRelative="0.93" departed="0" arrived="11" entered="12" left="0" laneChangedFrom="12" laneChangedTo="9"/>
            <lane id="E2_1" sampledSeconds="568.70" traveltime="111.88" overlapTraveltime="112.23" density="5.89" laneDensity="5.89" occupancy="2.94" waitingTime="0.00" timeLoss="31.57" speed="14.38" speedRelative="1.04" departed="0" arrived="4" entered="6" left="0" laneChangedFrom="9" laneChangedTo="12"/>
        </edge>
    </interval>
    <interval begin="960.00" end="1020.00" id="e2laneData">
        <edge id="E2">
            <lane id="E2_0" sampledSeconds="1284.72" traveltime="128.05" overlapTraveltime="128.43" density="13.30" laneDensity="13.30" occupancy="6.63" waitingTime="0.00" timeLoss="74.89" speed="12.57" speedRelative="0.90" departed="0" arrived="13" entered="12" left="0" laneChangedFrom="8" laneChangedTo="8"/>
            <lane id="E2_1" sampledSeconds="657.23" traveltime="113.62" overlapTraveltime="113.95" density="6.81" laneDensity="6.81" occupancy="3.40" waitingTime="0.00" timeLoss="40.08" speed="14.17" speedRelative="1.02" departed="0" arrived="6" entered="2" left="0" laneChangedFrom="8" laneChangedTo="8"/>
        </edge>
    </interval>
    <interval begin="1020.00" end="1080.00" id="e2laneData">
        <edge id="E2">
            <lane id="E2_0" sampledSeconds="1289.98" traveltime="130.30" overlapTraveltime="130.68" density="13.36" laneDensity="13.36" occupancy="6.66" waitingTime="0.00" timeLoss="83.82" speed="12.35" speedRelative="0.89" departed="0" arrived="8" entered="12" left="0" laneChangedFrom="14" laneChangedTo="7"/>
            <lane id="E2_1" sampledSeconds="659.54" traveltime="118.00" overlapTraveltime="118.36" density="6.83" laneDensity="6.83" occupancy="3.41" waitingTime="0.00" timeLoss="40.47" speed="13.64" speedRelative="0.98" departed="0" arrived="5" entered="2" left="0" laneChangedFrom="7" laneChangedTo="14"/>
        </edge>
    </interval>
    <interval begin="1080.00" end="1140.00" id="e2laneData">
        <edge id="E2">
            <lane id="E2_0" sampledSeconds="1407.23" traveltime="132.47" overlapTraveltime="132.89" density="14.57" laneDensity="14.57" occupancy="7.26" waitingTime="0.00" timeLoss="108.44" speed="12.15" speedRelative="0.87" departed="0" arrived="9" entered="13" left="0" laneChangedFrom="12" laneChangedTo="10"/>
            <lane id="E2_1" sampledSeconds="757.73" traveltime="117.38" overlapTraveltime="117.74" density="7.85" laneDensity="7.85" occupancy="3.91" waitingTime="0.00" timeLoss="55.86" speed="13.71" speedRelative="0.99" departed="0" arrived="8" entered="7" left="0" laneChangedFrom="10" laneChangedTo="12"/>
        </edge>
    </interval>
    <interval begin="1140.00" end="1200.00" id="e2laneData">
        <edge id="E2">
            <lane id="E2_0" sampledSeconds="1475.14" traveltime="127.59" overlapTraveltime="127.98" density="15.28" laneDensity="15.28" occupancy="7.61" waitingTime="0.00" timeLoss="88.15" speed="12.61" speedRelative="0.91" departed="0" arrived="12" entered="14" left="0" laneChangedFrom="13" laneChangedTo="15"/>
            <lane id="E2_1" sampledSeconds="803.22" traveltime="112.79" overlapTraveltime="113.14" density="8.32" laneDensity="8.32" occupancy="4.15" waitingTime="0.00" timeLoss="37.80" speed="14.27" speedRelative="1.03" departed="0" arrived="3" entered="4" left="0" laneChangedFrom="15" laneChangedTo="13"/>
        </edge>
    </interval>
    <interval begin="1200.00" end="1260.00" id="e2laneData">
        <edge id="E2">
            <lane id="E2_0" sampledSeconds="1660.28" traveltime="127.27" overlapTraveltime="127.66" density="17.19" laneDensity="17.19" occupancy="8.57" waitingTime="0.00" timeLoss="97.53" speed="12.65" speedRelative="0.91" departed="0" arrived="15" entered="14" left="0" laneChangedFrom="12" laneChangedTo="11"/>
            <lane id="E2_1" sampledSeconds="791.38" traveltime="114.61" overlapTraveltime="114.97" density="8.20" laneDensity="8.20" occupancy="4.09" waitingTime="0.00" timeLoss="55.17" speed="14.04" speedRelative="1.01" departed="0" arrived="7" entered="6" left="0" laneChangedFrom="11" laneChangedTo="12"/>
        </edge>
    </interval>
    <interval begin="1260.00" end="1320.00" id="e2laneData">
        <edge id="E2">
            <lane id="E2_0" sampledSeconds="1348.21" traveltime="128.93" overlapTraveltime="129.31" density="13.96" laneDensity="13.96" occupancy="6.95" waitingTime="0.00" timeLoss="86.05" speed="12.48" speedRelative="0.90" departed="0" arrived="9" entered="14" left="0" laneChangedFrom="15" laneChangedTo="5"/>
            <lane id="E2_1" sampledSeconds="747.02" traveltime="112.32" overlapTraveltime="112.67" density="7.74" laneDensity="7.74" occupancy="3.86" waitingTime="0.00" timeLoss="41.63" speed="14.33" speedRelative="1.03" departed="0" arrived="7" entered="0" left="0" laneChangedFrom="5" laneChangedTo="15"/>
        </edge>
    </interval>
    <interval begin="1320.00" end="1380.00" id="e2laneData">
        <edge id="E2">
            <lane id="E2_0" sampledSeconds="1228.45" traveltime="129.66" overlapTraveltime="130.07" density="12.72" laneDensity="12.72" occupancy="6.33" waitingTime="0.00" timeLoss="84.16" speed="12.41" speedRelative="0.89" departed="0" arrived="10" entered="14" left="0" laneChangedFrom="10" laneChangedTo="9"/>
            <lane id="E2_1" sampledSeconds="735.83" traveltime="115.43" overlapTraveltime="115.79" density="7.62" laneDensity="7.62" occupancy="3.80" waitingTime="0.00" timeLoss="51.03" speed="13.94" speedRelative="1.00" departed="0" arrived="8" entered="4" left="0" laneChangedFrom="9" laneChangedTo="10"/>
        </edge>
    </interval>
    <interval begin="1380.00" end="1440.00" id="e2laneData">
        <edge id="E2">
            <lane id="E2_0" sampledSeconds="1250.57" traveltime="129.41" overlapTraveltime="129.80" density="12.95" laneDensity="12.95" occupancy="6.45" waitingTime="0.00" timeLoss="90.77" speed="12.44" speedRelative="0.90" departed="0" arrived="11" entered="8" left="0" laneChangedFrom="10" laneChangedTo="13"/>
            <lane id="E2_1" sampledSeconds="666.62" traveltime="117.70" overlapTraveltime="118.06" density="6.90" laneDensity="6.90" occupancy="3.45" waitingTime="0.00" timeLoss="38.83" speed="13.67" speedRelative="0.98" departed="0" arrived="3" entered="3" left="0" laneChangedFrom="13" laneChangedTo="10"/>
        </edge>
    </interval>
    <interval begin="1440.00" end="1500.00" id="e2laneData">
        <edge id="E2">
            <lane id="E2_0" sampledSeconds="1304.58" traveltime="132.90" overlapTraveltime="133.31" density="13.51" laneDensity="13.51" occupancy="6.73" waitingTime="0.00" timeLoss="85.60" speed="12.11" speedRelative="0.87" departed="0" arrived="11" entered="13" left="0" laneChangedFrom="12" laneChangedTo="8"/>
            <lane id="E2_1" sampledSeconds="544.58" traveltime="120.23" overlapTraveltime="120.57" density="5.64" laneDensity="5.64" occupancy="2.81" waitingTime="0.00" timeLoss="34.72" speed="13.39" speedRelative="0.96" departed="0" arrived="7" entered="5" left="0" laneChangedFrom="8" laneChangedTo="12"/>
        </edge>
    </interval>
    <interval begin="1500.00" end="1560.00" id="e2laneData">
        <edge id="E2">
            <lane id="E2_0" sampledSeconds="1391.10" traveltime="131.90" overlapTraveltime="132.31" density="14.41" laneDensity="14.41" occupancy="7.18" waitingTime="0.00" timeLoss="89.82" speed="12.20" speedRelative="0.88" departed="0" arrived="8" entered="13" left="0" laneChangedFrom="9" laneChangedTo="10"/>
            <lane id="E2_1" sampledSeconds="809.91" traveltime="119.74" overlapTraveltime="120.11" density="8.39" laneDensity="8.39" occupancy="4.18" waitingTime="0.00" timeLoss="59.99" speed="13.44" speedRelative="0.97" departed="0" arrived="2" entered="8" left="0" laneChangedFrom="10" laneChangedTo="9"/>
        </edge>
    </interval>
    <interval begin="1560.00" end="1620.00" id="e2laneData">
        <edge id="E2">
            <lane id="E2_0" sampledSeconds="1438.48" traveltime="129.51" overlapTraveltime="129.89" density="14.90" laneDensity="14.90" occupancy="7.42" waitingTime="0.00" timeLoss="98.16" speed="12.43" speedRelative="0.89" departed="0" arrived="16" entered="9" left="0" laneChangedFrom="10" laneChangedTo="12"/>
            <lane id="E2_1" sampledSeconds="719.02" traveltime="119.10" overlapTraveltime="119.47" density="7.45" laneDensity="7.45" occupancy="3.71" waitingTime="0.00" timeLoss="53.60" speed="13.51" speedRelative="0.97" departed="0" arrived="7" entered="3" left="0" laneChangedFrom="12" laneChangedTo="10"/>
        </edge>
    </interval>
    <interval begin="1620.00" end="1680.00" id="e2laneData">
        <edge id="E2">
            <lane id="E2_0" sampledSeconds="1318.97" traveltime="128.96" overlapTraveltime="129.36" density="13.66" laneDensity="13.66" occupancy="6.80" waitingTime="0.00" timeLoss="77.50" speed="12.48" speedRelative="0.90" departed="0" arrived="12" entered="13" left="0" laneChangedFrom="12" laneChangedTo="12"/>
            <lane id="E2_1" sampledSeconds="627.79" traveltime="116.85" overlapTraveltime="117.20" density="6.50" laneDensity="6.50" occupancy="3.24" waitingTime="0.00" timeLoss="30.58" speed="13.77" speedRelative="0.99" departed="0" arrived="5" entered="3" left="0" laneChangedFrom="12" laneChangedTo="12"/>
        </edge>
    </interval>
    <interval begin="1680.00" end="1740.00" id="e2laneData">
        <edge id="E2">
            <lane id="E2_0" sampledSeconds="1478.39" traveltime="129.67" overlapTraveltime="130.05" density="15.31" laneDensity="15.31" occupancy="7.62" waitingTime="0.00" timeLoss="87.62" speed="12.41" speedRelative="0.89" departed="0" arrived="13" entered="17" left="0" laneChangedFrom="11" laneChangedTo="11"/>
            <lane id="E2_1" sampledSeconds="521.25" traveltime="116.97" overlapTraveltime="117.32" density="5.40" laneDensity="5.40" occupancy="2.70" waitingTime="0.00" timeLoss="29.72" speed="13.76" speedRelative="0.99" departed="0" arrived="2" entered="2" left="0" laneChangedFrom="11" laneChangedTo="11"/>
        </edge>
    </interval>
    <interval begin="1740.00" end="1800.00" id="e2laneData">
        <edge id="E2">
            <lane id="E2_0" sampledSeconds="1586.53" traveltime="130.87" overlapTraveltime="131.27" density="16.43" laneDensity="16.43" occupancy="8.18" waitingTime="0.00" timeLoss="96.72" speed="12.30" speedRelative="0.89" departed="0" arrived="8" entered="18" left="0" laneChangedFrom="19" laneChangedTo="11"/>
            <lane id="E2_1" sampledSeconds="951.51" traveltime="120.97" overlapTraveltime="121.34" density="9.85" laneDensity="9.85" occupancy="4.92" waitingTime="0.00" timeLoss="62.33" speed="13.30" speedRelative="0.96" departed="0" arrived="3" entered="8" left="0" laneChangedFrom="11" laneChangedTo="19"/>
        </edge>
    </interval>
    <interval begin="1800.00" end="1860.00" id="e2laneData">
        <edge id="E2">
            <lane id="E2_0" sampledSeconds="1655.90" traveltime="131.32" overlapTraveltime="131.73" density="17.15" laneDensity="17.15" occupancy="8.55" waitingTime="0.00" timeLoss="123.48" speed="12.25" speedRelative="0.88" departed="0" arrived="11" entered="12" left="0" laneChangedFrom="15" laneChangedTo="15"/>
            <lane id="E2_1" sampledSeconds="1087.37" traveltime="122.27" overlapTraveltime="122.64" density="11.26" laneDensity="11.26" occupancy="5.62" waitingTime="0.00" timeLoss="84.10" speed="13.16" speedRelative="0.95" departed="0" arrived="10" entered="7" left="0" laneChangedFrom="15" laneChangedTo="15"/>
        </edge>
    </interval>
    <interval begin="1860.00" end="1920.00" id="e2laneData">
        <edge id="E2">
            <lane id="E2_0" sampledSeconds="1566.49" traveltime="130.36" overlapTraveltime="130.76" density="16.22" laneDensity="16.22" occupancy="8.08" waitingTime="0.00" timeLoss="136.03" speed="12.35" speedRelative="0.89" departed="0" arrived="16" entered="12" left="0" laneChangedFrom="8" laneChangedTo="8"/>
            <lane id="E2_1" sampledSeconds="840.03" traveltime="124.65" overlapTraveltime="125.01" density="8.70" laneDensity="8.70" occupancy="4.34" waitingTime="0.00" timeLoss="99.30" speed="12.91" speedRelative="0.93" departed="0" arrived="11" entered="2" left="0" laneChangedFrom="8" laneChangedTo="8"/>
        </edge>
    </interval>
    <interval begin="1920.00" end="1980.00" id="e2laneData">
        <edge id="E2">
            <lane id="E2_0" sampledSeconds="1513.79" traveltime="129.08" overlapTraveltime="129.47" density="15.68" laneDensity="15.68" occupancy="7.81" waitingTime="0.00" timeLoss="127.44" speed="12.47" speedRelative="0.90" departed="0" arrived="12" entered="14" left="0" laneChangedFrom="11" laneChangedTo="6"/>
            <lane id="E2_1" sampledSeconds="734.52" traveltime="121.86" overlapTraveltime="122.22" density="7.61" laneDensity="7.61" occupancy="3.79" waitingTime="0.00" timeLoss="81.88" speed="13.21" speedRelative="0.95" departed="0" arrived="6" entered="5" left="0" laneChangedFrom="6" laneChangedTo="11"/>
        </edge>
    </interval>
    <interval begin="1980.00" end="2040.00" id="e2laneData">
        <edge id="E2">
            <lane id="E2_0" sampledSeconds="1443.75" traveltime="129.95" overlapTraveltime="130.34" density="14.95" laneDensity="14.95" occupancy="7.45" waitingTime="0.00" timeLoss="85.08" speed="12.39" speedRelative="0.89" departed="0" arrived="10" entered="14" left="0" laneChangedFrom="10" laneChangedTo="9"/>
            <lane id="E2_1" sampledSeconds="814.06" traveltime="115.32" overlapTraveltime="115.67" density="8.43" laneDensity="8.43" occupancy="4.21" waitingTime="0.00" timeLoss="49.04" speed="13.96" speedRelative="1.00" departed="0" arrived="7" entered="5" left="0" laneChangedFrom="9" laneChangedTo="10"/>
        </edge>
    </interval>
    <interval begin="2040.00" end="2100.00" id="e2laneData">
        <edge id="E2">
            <lane id="E2_0" sampledSeconds="1496.56" traveltime="131.05" overlapTraveltime="131.42" density="15.50" laneDensity="15.50" occupancy="7.72" waitingTime="0.00" timeLoss="91.45" speed="12.28" speedRelative="0.88" departed="0" arrived="13" entered="16" left="0" laneChangedFrom="11" laneChangedTo="8"/>
            <lane id="E2_1" sampledSeconds="801.34" traveltime="118.24" overlapTraveltime="118.60" density="8.30" laneDensity="8.30" occupancy="4.14" waitingTime="0.00" timeLoss="52.37" speed="13.61" speedRelative="0.98" departed="0" arrived="2" entered="4" left="0" laneChangedFrom="8" laneChangedTo="11"/>
        </edge>
    </interval>
    <interval begin="2100.00" end="2160.00" id="e2laneData">
        <edge id="E2">
            <lane id="E2_0" sampledSeconds="1418.13" traveltime="131.13" overlapTraveltime="131.54" density="14.69" laneDensity="14.69" occupancy="7.32" waitingTime="0.00" timeLoss="96.22" speed="12.27" speedRelative="0.88" departed="0" arrived="14" entered="12" left="0" laneChangedFrom="11" laneChangedTo="11"/>
            <lane id="E2_1" sampledSeconds="865.77" traveltime="120.71" overlapTraveltime="121.07" density="8.97" laneDensity="8.97" occupancy="4.48" waitingTime="0.00" timeLoss="64.99" speed="13.33" speedRelative="0.96" departed="0" arrived="5" entered="1" left="0" laneChangedFrom="11" laneChangedTo="11"/>
        </edge>
    </interval>
    <interval begin="2160.00" end="2220.00" id="e2laneData">
        <edge id="E2">
            <lane id="E2_0" sampledSeconds="1473.22" traveltime="128.37" overlapTraveltime="128.78" density="15.26" laneDensity="15.26" occupancy="7.60" waitingTime="0.00" timeLoss="89.55" speed="12.54" speedRelative="0.90" departed="0" arrived="13" entered="14" left="0" laneChangedFrom="10" laneChangedTo="11"/>
            <lane id="E2_1" sampledSeconds="686.60" traveltime="116.08" overlapTraveltime="116.45" density="7.11" laneDensity="7.11" occupancy="3.55" waitingTime="0.00" timeLoss="50.02" speed="13.86" speedRelative="1.00" departed="0" arrived="5" entered="5" left="0" laneChangedFrom="11" laneChangedTo="10"/>
        </edge>
    </interval>
    <interval begin="2220.00" end="2280.00" id="e2laneData">
        <edge id="E2">
            <lane id="E2_0" sampledSeconds="1292.60" traveltime="129.03" overlapTraveltime="129.41" density="13.39" laneDensity="13.39" occupancy="6.67" waitingTime="0.00" timeLoss="74.20" speed="12.47" speedRelative="0.90" departed="0" arrived="12" entered="9" left="0" laneChangedFrom="10" laneChangedTo="9"/>
            <lane id="E2_1" sampledSeconds="645.34" traveltime="117.11" overlapTraveltime="117.45" density="6.68" laneDensity="6.68" occupancy="3.33" waitingTime="0.00" timeLoss="33.79" speed="13.74" speedRelative="0.99" departed="0" arrived="6" entered="4" left="0" laneChangedFrom="9" laneChangedTo="10"/>
        </edge>
    </interval>
    <interval begin="2280.00" end="2340.00" id="e2laneData">
        <edge id="E2">
            <lane id="E2_0" sampledSeconds="1316.50" traveltime="132.58" overlapTraveltime="132.97" density="13.63" laneDensity="13.63" occupancy="6.79" waitingTime="0.00" timeLoss="87.91" speed="12.14" speedRelative="0.87" departed="0" arrived="10" entered="10" left="0" laneChangedFrom="6" laneChangedTo="7"/>
            <lane id="E2_1" sampledSeconds="513.47" traveltime="123.01" overlapTraveltime="123.37" density="5.32" laneDensity="5.32" occupancy="2.66" waitingTime="0.00" timeLoss="32.85" speed="13.08" speedRelative="0.94" departed="0" arrived="3" entered="1" left="0" laneChangedFrom="7" laneChangedTo="6"/>
        </edge>
    </interval>
    <interval begin="2340.00" end="2400.00" id="e2laneData">
        <edge id="E2">
            <lane id="E2_0" sampledSeconds="1192.78" traveltime="133.17" overlapTraveltime="133.58" density="12.35" laneDensity="12.35" occupancy="6.15" waitingTime="0.00" timeLoss="76.99" speed="12.09" speedRelative="0.87" departed="0" arrived="9" entered="15" left="0" laneChangedFrom="13" laneChangedTo="6"/>
            <lane id="E2_1" sampledSeconds="633.10" traveltime="120.44" overlapTraveltime="120.83" density="6.56" laneDensity="6.56" occupancy="3.27" waitingTime="0.00" timeLoss="34.96" speed="13.36" speedRelative="0.96" departed="0" arrived="9" entered="4" left="0" laneChangedFrom="6" laneChangedTo="13"/>
        </edge>
    </interval>
    <interval begin="2400.00" end="2460.00" id="e2laneData">
        <edge id="E2">