<?xml version="1.0" encoding="UTF-8"?>

<!-- generated on 2024-06-11 13:43:22 by Eclipse SUMO GUI Version 1.19.0
<configuration xmlns:xsi="http://www.w3.org/2001/XMLSchema-instance" xsi:noNamespaceSchemaLocation="http://sumo.dlr.de/xsd/sumoConfiguration.xsd">

    <input>
        <net-file value="C:\Users\joshu\Code\sumo-str-sim\pureba\net.net.xml"/>
        <route-files value="C:\Users\joshu\Code\sumo-str-sim\pureba\net.rou.xml"/>
        <additional-files value="C:\Users\joshu\Code\sumo-str-sim\pureba\net.add.xml,C:\Users\joshu\Code\sumo-str-sim\pureba\sumoNet.med.add.xml"/>
    </input>

</configuration>
-->

<meandata xmlns:xsi="http://www.w3.org/2001/XMLSchema-instance" xsi:noNamespaceSchemaLocation="http://sumo.dlr.de/xsd/meandata_file.xsd">
    <interval begin="0.00" end="60.00" id="e71laneData"/>
    <interval begin="60.00" end="120.00" id="e71laneData"/>
    <interval begin="120.00" end="180.00" id="e71laneData">
        <edge id="E7.142">
            <lane id="E7.142_0" sampledSeconds="188.31" traveltime="60.12" overlapTraveltime="60.49" density="3.90" laneDensity="3.90" occupancy="1.94" waitingTime="0.00" timeLoss="8.96" speed="13.39" speedRelative="0.96" departed="0" arrived="0" entered="4" left="0" laneChangedFrom="1" laneChangedTo="5"/>
            <lane id="E7.142_1" sampledSeconds="28.25" traveltime="57.09" overlapTraveltime="57.44" density="0.59" laneDensity="0.59" occupancy="0.28" waitingTime="0.00" timeLoss="1.26" speed="14.10" speedRelative="1.01" departed="0" arrived="0" entered="4" left="0" laneChangedFrom="5" laneChangedTo="1"/>
        </edge>
    </interval>
    <interval begin="180.00" end="240.00" id="e71laneData">
        <edge id="E7.142">
            <lane id="E7.142_0" sampledSeconds="487.85" traveltime="62.33" overlapTraveltime="62.71" density="10.10" laneDensity="10.10" occupancy="5.02" waitingTime="0.00" timeLoss="23.69" speed="12.91" speedRelative="0.93" departed="0" arrived="0" entered="8" left="7" laneChangedFrom="2" laneChangedTo="2"/>
            <lane id="E7.142_1" sampledSeconds="111.11" traveltime="55.88" overlapTraveltime="56.22" density="2.30" laneDensity="2.30" occupancy="1.14" waitingTime="0.00" timeLoss="4.84" speed="14.40" speedRelative="1.04" departed="0" arrived="0" entered="5" left="0" laneChangedFrom="2" laneChangedTo="2"/>
        </edge>
    </interval>
    <interval begin="240.00" end="300.00" id="e71laneData">
        <edge id="E7.142">
            <lane id="E7.142_0" sampledSeconds="585.22" traveltime="61.18" overlapTraveltime="61.57" density="12.12" laneDensity="12.12" occupancy="6.02" waitingTime="0.00" timeLoss="28.11" speed="13.15" speedRelative="0.95" departed="0" arrived="0" entered="7" left="12" laneChangedFrom="2" laneChangedTo="7"/>
            <lane id="E7.142_1" sampledSeconds="210.82" traveltime="55.22" overlapTraveltime="55.58" density="4.37" laneDensity="4.37" occupancy="2.17" waitingTime="0.00" timeLoss="8.97" speed="14.57" speedRelative="1.05" departed="0" arrived="0" entered="4" left="3" laneChangedFrom="7" laneChangedTo="2"/>
        </edge>
    </interval>
    <interval begin="300.00" end="360.00" id="e71laneData">
        <edge id="E7.142">
            <lane id="E7.142_0" sampledSeconds="534.41" traveltime="63.96" overlapTraveltime="64.34" density="11.07" laneDensity="11.07" occupancy="5.50" waitingTime="0.00" timeLoss="30.92" speed="12.58" speedRelative="0.91" departed="0" arrived="0" entered="8" left="8" laneChangedFrom="2" laneChangedTo="4"/>
            <lane id="E7.142_1" sampledSeconds="225.95" traveltime="61.63" overlapTraveltime="62.00" density="4.68" laneDensity="4.68" occupancy="2.32" waitingTime="0.00" timeLoss="16.90" speed="13.06" speedRelative="0.94" departed="0" arrived="0" entered="8" left="2" laneChangedFrom="4" laneChangedTo="2"/>
        </edge>
    </interval>
    <interval begin="360.00" end="420.00" id="e71laneData">
        <edge id="E7.142">
            <lane id="E7.142_0" sampledSeconds="621.18" traveltime="62.36" overlapTraveltime="62.76" density="12.87" laneDensity="12.87" occupancy="6.40" waitingTime="0.00" timeLoss="39.27" speed="12.90" speedRelative="0.93" departed="0" arrived="0" entered="5" left="9" laneChangedFrom="3" laneChangedTo="4"/>
            <lane id="E7.142_1" sampledSeconds="298.00" traveltime="60.66" overlapTraveltime="61.03" density="6.17" laneDensity="6.17" occupancy="3.06" waitingTime="0.00" timeLoss="18.47" speed="13.27" speedRelative="0.96" departed="0" arrived="0" entered="6" left="6" laneChangedFrom="4" laneChangedTo="3"/>
        </edge>
    </interval>
    <interval begin="420.00" end="480.00" id="e71laneData">
        <edge id="E7.142">
            <lane id="E7.142_0" sampledSeconds="608.14" traveltime="64.03" overlapTraveltime="64.42" density="12.60" laneDensity="12.60" occupancy="6.26" waitingTime="0.00" timeLoss="44.71" speed="12.57" speedRelative="0.90" departed="0" arrived="0" entered="8" left="8" laneChangedFrom="5" laneChangedTo="7"/>
            <lane id="E7.142_1" sampledSeconds="324.50" traveltime="60.55" overlapTraveltime="60.92" density="6.72" laneDensity="6.72" occupancy="3.33" waitingTime="0.00" timeLoss="20.52" speed="13.29" speedRelative="0.96" departed="0" arrived="0" entered="9" left="5" laneChangedFrom="7" laneChangedTo="5"/>
        </edge>
    </interval>
    <interval begin="480.00" end="540.00" id="e71laneData">
        <edge id="E7.142">
            <lane id="E7.142_0" sampledSeconds="421.39" traveltime="63.01" overlapTraveltime="63.42" density="8.73" laneDensity="8.73" occupancy="4.34" waitingTime="0.00" timeLoss="27.73" speed="12.77" speedRelative="0.92" departed="0" arrived="0" entered="3" left="8" laneChangedFrom="3" laneChangedTo="4"/>
            <lane id="E7.142_1" sampledSeconds="268.18" traveltime="60.43" overlapTraveltime="60.83" density="5.55" laneDensity="5.55" occupancy="2.75" waitingTime="0.00" timeLoss="28.07" speed="13.31" speedRelative="0.96" departed="0" arrived="0" entered="5" left="8" laneChangedFrom="4" laneChangedTo="3"/>
        </edge>
    </interval>
    <interval begin="540.00" end="600.00" id="e71laneData">
        <edge id="E7.142">
            <lane id="E7.142_0" sampledSeconds="426.08" traveltime="61.02" overlapTraveltime="61.39" density="8.83" laneDensity="8.83" occupancy="4.39" waitingTime="0.00" timeLoss="20.93" speed="13.19" speedRelative="0.95" departed="0" arrived="0" entered="5" left="5" laneChangedFrom="2" laneChangedTo="4"/>
            <lane id="E7.142_1" sampledSeconds="152.95" traveltime="57.91" overlapTraveltime="58.29" density="3.17" laneDensity="3.17" occupancy="1.57" waitingTime="0.00" timeLoss="7.40" speed="13.89" speedRelative="1.00" departed="0" arrived="0" entered="5" left="3" laneChangedFrom="4" laneChangedTo="2"/>
        </edge>
    </interval>
    <interval begin="600.00" end="660.00" id="e71laneData">
        <edge id="E7.142">
            <lane id="E7.142_0" sampledSeconds="476.94" traveltime="62.14" overlapTraveltime="62.53" density="9.88" laneDensity="9.88" occupancy="4.92" waitingTime="0.00" timeLoss="25.16" speed="12.95" speedRelative="0.93" departed="0" arrived="0" entered="4" left="8" laneChangedFrom="3" laneChangedTo="5"/>
            <lane id="E7.142_1" sampledSeconds="139.92" traveltime="58.94" overlapTraveltime="59.31" density="2.90" laneDensity="2.90" occupancy="1.44" waitingTime="0.00" timeLoss="6.41" speed="13.65" speedRelative="0.98" departed="0" arrived="0" entered="4" left="2" laneChangedFrom="5" laneChangedTo="3"/>
        </edge>
    </interval>
    <interval begin="660.00" end="720.00" id="e71laneData">
        <edge id="E7.142">
            <lane id="E7.142_0" sampledSeconds="336.87" traveltime="62.83" overlapTraveltime="63.23" density="6.98" laneDensity="6.98" occupancy="3.46" waitingTime="0.00" timeLoss="18.86" speed="12.81" speedRelative="0.92" departed="0" arrived="0" entered="5" left="7" laneChangedFrom="0" laneChangedTo="4"/>
            <lane id="E7.142_1" sampledSeconds="268.06" traveltime="62.09" overlapTraveltime="62.47" density="5.55" laneDensity="5.55" occupancy="2.75" waitingTime="0.00" timeLoss="22.27" speed="12.96" speedRelative="0.93" departed="0" arrived="0" entered="10" left="1" laneChangedFrom="4" laneChangedTo="0"/>
        </edge>
    </interval>
    <interval begin="720.00" end="780.00" id="e71laneData">
        <edge id="E7.142">
            <lane id="E7.142_0" sampledSeconds="542.31" traveltime="60.60" overlapTraveltime="60.97" density="11.23" laneDensity="11.23" occupancy="5.59" waitingTime="0.00" timeLoss="33.02" speed="13.28" speedRelative="0.96" departed="0" arrived="0" entered="4" left="11" laneChangedFrom="2" laneChangedTo="8"/>
            <lane id="E7.142_1" sampledSeconds="285.22" traveltime="55.95" overlapTraveltime="56.32" density="5.91" laneDensity="5.91" occupancy="2.94" waitingTime="0.00" timeLoss="17.83" speed="14.38" speedRelative="1.04" departed="0" arrived="0" entered="6" left="4" laneChangedFrom="8" laneChangedTo="2"/>
        </edge>
    </interval>
    <interval begin="780.00" end="840.00" id="e71laneData">
        <edge id="E7.142">
            <lane id="E7.142_0" sampledSeconds="482.74" traveltime="63.92" overlapTraveltime="64.30" density="10.00" laneDensity="10.00" occupancy="4.98" waitingTime="0.00" timeLoss="29.72" speed="12.59" speedRelative="0.91" departed="0" arrived="0" entered="6" left="6" laneChangedFrom="3" laneChangedTo="4"/>
            <lane id="E7.142_1" sampledSeconds="300.62" traveltime="59.83" overlapTraveltime="60.19" density="6.23" laneDensity="6.23" occupancy="3.10" waitingTime="0.00" timeLoss="24.21" speed="13.45" speedRelative="0.97" departed="0" arrived="0" entered="6" left="2" laneChangedFrom="4" laneChangedTo="3"/>
        </edge>
    </interval>
    <interval begin="840.00" end="900.00" id="e71laneData">
        <edge id="E7.142">
            <lane id="E7.142_0" sampledSeconds="462.64" traveltime="63.10" overlapTraveltime="63.48" density="9.58" laneDensity="9.58" occupancy="4.76" waitingTime="0.00" timeLoss="23.57" speed="12.75" speedRelative="0.92" departed="0" arrived="0" entered="6" left="10" laneChangedFrom="1" laneChangedTo="5"/>
            <lane id="E7.142_1" sampledSeconds="227.82" traveltime="56.96" overlapTraveltime="57.34" density="4.72" laneDensity="4.72" occupancy="2.33" waitingTime="0.00" timeLoss="13.28" speed="14.12" speedRelative="1.02" departed="0" arrived="0" entered="9" left="5" laneChangedFrom="5" laneChangedTo="1"/>
        </edge>
    </interval>
    <interval begin="900.00" end="960.00" id="e71laneData">
        <edge id="E7.142">
            <lane id="E7.142_0" sampledSeconds="591.05" traveltime="66.14" overlapTraveltime="66.57" density="12.24" laneDensity="12.24" occupancy="6.09" waitingTime="0.00" timeLoss="33.25" speed="12.16" speedRelative="0.88" departed="0" arrived="0" entered="6" left="9" laneChangedFrom="4" laneChangedTo="8"/>
            <lane id="E7.142_1" sampledSeconds="295.11" traveltime="57.55" overlapTraveltime="57.88" density="6.11" laneDensity="6.11" occupancy="3.03" waitingTime="0.00" timeLoss="16.05" speed="13.99" speedRelative="1.01" departed="0" arrived="0" entered="8" left="6" laneChangedFrom="8" laneChangedTo="4"/>
        </edge>
    </interval>
    <interval begin="960.00" end="1020.00" id="e71laneData">
        <edge id="E7.142">
            <lane id="E7.142_0" sampledSeconds="389.22" traveltime="63.00" overlapTraveltime="63.38" density="8.06" laneDensity="8.06" occupancy="4.01" waitingTime="0.00" timeLoss="19.63" speed="12.77" speedRelative="0.92" departed="0" arrived="0" entered="2" left="10" laneChangedFrom="2" laneChangedTo="5"/>
            <lane id="E7.142_1" sampledSeconds="219.58" traveltime="56.84" overlapTraveltime="57.19" density="4.55" laneDensity="4.55" occupancy="2.26" waitingTime="0.00" timeLoss="10.91" speed="14.16" speedRelative="1.02" departed="0" arrived="0" entered="5" left="3" laneChangedFrom="5" laneChangedTo="2"/>
        </edge>
    </interval>
    <interval begin="1020.00" end="1080.00" id="e71laneData">
        <edge id="E7.142">
            <lane id="E7.142_0" sampledSeconds="451.44" traveltime="64.08" overlapTraveltime="64.46" density="9.35" laneDensity="9.35" occupancy="4.65" waitingTime="0.00" timeLoss="28.29" speed="12.56" speedRelative="0.90" departed="0" arrived="0" entered="7" left="5" laneChangedFrom="1" laneChangedTo="4"/>
            <lane id="E7.142_1" sampledSeconds="329.77" traveltime="59.26" overlapTraveltime="59.62" density="6.83" laneDensity="6.83" occupancy="3.40" waitingTime="0.00" timeLoss="25.33" speed="13.58" speedRelative="0.98" departed="0" arrived="0" entered="7" left="2" laneChangedFrom="4" laneChangedTo="1"/>
        </edge>
    </interval>
    <interval begin="1080.00" end="1140.00" id="e71laneData">
        <edge id="E7.142">
            <lane id="E7.142_0" sampledSeconds="612.12" traveltime="63.04" overlapTraveltime="63.43" density="12.68" laneDensity="12.68" occupancy="6.31" waitingTime="0.00" timeLoss="31.26" speed="12.76" speedRelative="0.92" departed="0" arrived="0" entered="5" left="9" laneChangedFrom="5" laneChangedTo="9"/>
            <lane id="E7.142_1" sampledSeconds="308.37" traveltime="57.52" overlapTraveltime="57.89" density="6.39" laneDensity="6.39" occupancy="3.16" waitingTime="0.00" timeLoss="23.45" speed="13.99" speedRelative="1.01" departed="0" arrived="0" entered="9" left="7" laneChangedFrom="9" laneChangedTo="5"/>
        </edge>
    </interval>
    <interval begin="1140.00" end="1200.00" id="e71laneData">
        <edge id="E7.142">
            <lane id="E7.142_0" sampledSeconds="495.87" traveltime="64.81" overlapTraveltime="65.22" density="10.27" laneDensity="10.27" occupancy="5.11" waitingTime="0.00" timeLoss="25.61" speed="12.41" speedRelative="0.89" departed="0" arrived="0" entered="5" left="8" laneChangedFrom="3" laneChangedTo="5"/>
            <lane id="E7.142_1" sampledSeconds="378.22" traveltime="56.32" overlapTraveltime="56.66" density="7.83" laneDensity="7.83" occupancy="3.89" waitingTime="0.00" timeLoss="23.66" speed="14.29" speedRelative="1.03" departed="0" arrived="0" entered="10" left="4" laneChangedFrom="5" laneChangedTo="3"/>
        </edge>
    </interval>
    <interval begin="1200.00" end="1260.00" id="e71laneData">
        <edge id="E7.142">
            <lane id="E7.142_0" sampledSeconds="382.65" traveltime="60.98" overlapTraveltime="61.38" density="7.93" laneDensity="7.93" occupancy="3.94" waitingTime="0.00" timeLoss="19.25" speed="13.19" speedRelative="0.95" departed="0" arrived="0" entered="3" left="9" laneChangedFrom="1" laneChangedTo="4"/>
            <lane id="E7.142_1" sampledSeconds="128.86" traveltime="56.45" overlapTraveltime="56.86" density="2.67" laneDensity="2.67" occupancy="1.32" waitingTime="0.00" timeLoss="11.97" speed="14.24" speedRelative="1.03" departed="0" arrived="0" entered="2" left="6" laneChangedFrom="4" laneChangedTo="1"/>
        </edge>
    </interval>
    <interval begin="1260.00" end="1320.00" id="e71laneData">
        <edge id="E7.142">
            <lane id="E7.142_0" sampledSeconds="406.27" traveltime="62.33" overlapTraveltime="62.70" density="8.41" laneDensity="8.41" occupancy="4.18" waitingTime="0.00" timeLoss="25.33" speed="12.91" speedRelative="0.93" departed="0" arrived="0" entered="7" left="5" laneChangedFrom="1" laneChangedTo="2"/>
            <lane id="E7.142_1" sampledSeconds="162.64" traveltime="58.89" overlapTraveltime="59.26" density="3.37" laneDensity="3.37" occupancy="1.67" waitingTime="0.00" timeLoss="15.24" speed="13.66" speedRelative="0.98" departed="0" arrived="0" entered="7" left="0" laneChangedFrom="2" laneChangedTo="1"/>
        </edge>
    </interval>
    <interval begin="1320.00" end="1380.00" id="e71laneData">
        <edge id="E7.142">
            <lane id="E7.142_0" sampledSeconds="391.83" traveltime="66.22" overlapTraveltime="66.60" density="8.12" laneDensity="8.12" occupancy="4.04" waitingTime="0.00" timeLoss="22.14" speed="12.16" speedRelative="0.88" departed="0" arrived="0" entered="3" left="7" laneChangedFrom="2" laneChangedTo="5"/>
            <lane id="E7.142_1" sampledSeconds="201.75" traveltime="56.97" overlapTraveltime="57.31" density="4.18" laneDensity="4.18" occupancy="2.07" waitingTime="0.00" timeLoss="11.42" speed="14.13" speedRelative="1.02" departed="0" arrived="0" entered="4" left="4" laneChangedFrom="5" laneChangedTo="2"/>
        </edge>
    </interval>
    <interval begin="1380.00" end="1440.00" id="e71laneData">
        <edge id="E7.142">
            <lane id="E7.142_0" sampledSeconds="487.25" traveltime="64.27" overlapTraveltime="64.70" density="10.09" laneDensity="10.09" occupancy="5.02" waitingTime="0.00" timeLoss="24.54" speed="12.51" speedRelative="0.90" departed="0" arrived="0" entered="4" left="6" laneChangedFrom="1" laneChangedTo="5"/>
            <lane id="E7.142_1" sampledSeconds="243.26" traveltime="60.43" overlapTraveltime="60.81" density="5.04" laneDensity="5.04" occupancy="2.50" waitingTime="0.00" timeLoss="16.35" speed="13.32" speedRelative="0.96" departed="0" arrived="0" entered="9" left="3" laneChangedFrom="5" laneChangedTo="1"/>
        </edge>
    </interval>
    <interval begin="1440.00" end="1500.00" id="e71laneData">
        <edge id="E7.142">
            <lane id="E7.142_0" sampledSeconds="479.59" traveltime="62.24" overlapTraveltime="62.64" density="9.93" laneDensity="9.93" occupancy="4.94" waitingTime="0.00" timeLoss="26.62" speed="12.93" speedRelative="0.93" departed="0" arrived="0" entered="6" left="9" laneChangedFrom="2" laneChangedTo="3"/>
            <lane id="E7.142_1" sampledSeconds="300.10" traveltime="58.53" overlapTraveltime="58.90" density="6.22" laneDensity="6.22" occupancy="3.09" waitingTime="0.00" timeLoss="28.99" speed="13.75" speedRelative="0.99" departed="0" arrived="0" entered="7" left="5" laneChangedFrom="3" laneChangedTo="2"/>
        </edge>
    </interval>
    <interval begin="1500.00" end="1560.00" id="e71laneData">
        <edge id="E7.142">
            <lane id="E7.142_0" sampledSeconds="420.51" traveltime="63.43" overlapTraveltime="63.81" density="8.71" laneDensity="8.71" occupancy="4.33" waitingTime="0.00" timeLoss="21.68" speed="12.69" speedRelative="0.91" departed="0" arrived="0" entered="4" left="6" laneChangedFrom="2" laneChangedTo="5"/>
            <lane id="E7.142_1" sampledSeconds="340.08" traveltime="58.27" overlapTraveltime="58.62" density="7.04" laneDensity="7.04" occupancy="3.49" waitingTime="0.00" timeLoss="19.36" speed="13.81" speedRelative="0.99" departed="0" arrived="0" entered="8" left="8" laneChangedFrom="5" laneChangedTo="2"/>
        </edge>
    </interval>
    <interval begin="1560.00" end="1620.00" id="e71laneData">
        <edge id="E7.142">
            <lane id="E7.142_0" sampledSeconds="507.45" traveltime="64.32" overlapTraveltime="64.70" density="10.51" laneDensity="10.51" occupancy="5.23" waitingTime="0.00" timeLoss="26.69" speed="12.51" speedRelative="0.90" departed="0" arrived="0" entered="7" left="7" laneChangedFrom="3" laneChangedTo="4"/>
            <lane id="E7.142_1" sampledSeconds="237.92" traveltime="59.62" overlapTraveltime="59.99" density="4.93" laneDensity="4.93" occupancy="2.45" waitingTime="0.00" timeLoss="12.53" speed="13.50" speedRelative="0.97" departed="0" arrived="0" entered="4" left="3" laneChangedFrom="4" laneChangedTo="3"/>
        </edge>
    </interval>
    <interval begin="1620.00" end="1680.00" id="e71laneData">
        <edge id="E7.142">
            <lane id="E7.142_0" sampledSeconds="515.88" traveltime="63.21" overlapTraveltime="63.61" density="10.69" laneDensity="10.69" occupancy="5.31" waitingTime="0.00" timeLoss="26.52" speed="12.73" speedRelative="0.92" departed="0" arrived="0" entered="6" left="9" laneChangedFrom="3" laneChangedTo="7"/>
            <lane id="E7.142_1" sampledSeconds="137.31" traveltime="59.70" overlapTraveltime="60.05" density="2.84" laneDensity="2.84" occupancy="1.40" waitingTime="0.00" timeLoss="7.92" speed="13.48" speedRelative="0.97" departed="0" arrived="0" entered="7" left="3" laneChangedFrom="7" laneChangedTo="3"/>
        </edge>
    </interval>
    <interval begin="1680.00" end="1740.00" id="e71laneData">
        <edge id="E7.142">
            <lane id="E7.142_0" sampledSeconds="741.60" traveltime="64.91" overlapTraveltime="65.31" density="15.36" laneDensity="15.36" occupancy="7.64" waitingTime="0.00" timeLoss="44.31" speed="12.40" speedRelative="0.89" departed="0" arrived="0" entered="12" left="6" laneChangedFrom="6" laneChangedTo="4"/>
            <lane id="E7.142_1" sampledSeconds="370.64" traveltime="60.53" overlapTraveltime="60.91" density="7.68" laneDensity="7.68" occupancy="3.83" waitingTime="0.00" timeLoss="20.28" speed="13.29" speedRelative="0.96" departed="0" arrived="0" entered="5" left="2" laneChangedFrom="4" laneChangedTo="6"/>
        </edge>
    </interval>
    <interval begin="1740.00" end="1800.00" id="e71laneData">
        <edge id="E7.142">
            <lane id="E7.142_0" sampledSeconds="581.12" traveltime="62.60" overlapTraveltime="63.04" density="12.04" laneDensity="12.04" occupancy="5.98" waitingTime="0.00" timeLoss="36.51" speed="12.84" speedRelative="0.92" departed="0" arrived="0" entered="6" left="14" laneChangedFrom="3" laneChangedTo="5"/>
            <lane id="E7.142_1" sampledSeconds="340.47" traveltime="61.17" overlapTraveltime="61.55" density="7.05" laneDensity="7.05" occupancy="3.49" waitingTime="0.00" timeLoss="28.31" speed="13.16" speedRelative="0.95" departed="0" arrived="0" entered="9" left="8" laneChangedFrom="5" laneChangedTo="3"/>
        </edge>
    </interval>
    <interval begin="1800.00" end="1860.00" id="e71laneData">
        <edge id="E7.142">
            <lane id="E7.142_0" sampledSeconds="496.59" traveltime="62.64" overlapTraveltime="63.05" density="10.29" laneDensity="10.29" occupancy="5.12" waitingTime="0.00" timeLoss="41.23" speed="12.84" speedRelative="0.92" departed="0" arrived="0" entered="4" left="8" laneChangedFrom="2" laneChangedTo="7"/>
            <lane id="E7.142_1" sampledSeconds="343.67" traveltime="60.65" overlapTraveltime="61.03" density="7.12" laneDensity="7.12" occupancy="3.53" waitingTime="0.00" timeLoss="29.18" speed="13.27" speedRelative="0.96" departed="0" arrived="0" entered="6" left="7" laneChangedFrom="7" laneChangedTo="2"/>
        </edge>
    </interval>
    <interval begin="1860.00" end="1920.00" id="e71laneData">
        <edge id="E7.142">
            <lane id="E7.142_0" sampledSeconds="475.97" traveltime="63.37" overlapTraveltime="63.75" density="9.86" laneDensity="9.86" occupancy="4.90" waitingTime="0.00" timeLoss="23.93" speed="12.70" speedRelative="0.91" departed="0" arrived="0" entered="6" left="8" laneChangedFrom="3" laneChangedTo="2"/>
            <lane id="E7.142_1" sampledSeconds="143.98" traveltime="61.78" overlapTraveltime="62.13" density="2.98" laneDensity="2.98" occupancy="1.48" waitingTime="0.00" timeLoss="8.30" speed="13.03" speedRelative="0.94" departed="0" arrived="0" entered="6" left="2" laneChangedFrom="2" laneChangedTo="3"/>
        </edge>
    </interval>
    <interval begin="1920.00" end="1980.00" id="e71laneData">
        <edge id="E7.142">
            <lane id="E7.142_0" sampledSeconds="528.24" traveltime="67.50" overlapTraveltime="67.93" density="10.94" laneDensity="10.94" occupancy="5.44" waitingTime="0.00" timeLoss="32.38" speed="11.92" speedRelative="0.86" departed="0" arrived="0" entered="8" left="7" laneChangedFrom="4" laneChangedTo="7"/>
            <lane id="E7.142_1" sampledSeconds="406.43" traveltime="60.79" overlapTraveltime="61.15" density="8.42" laneDensity="8.42" occupancy="4.19" waitingTime="0.00" timeLoss="33.47" speed="13.24" speedRelative="0.95" departed="0" arrived="0" entered="7" left="5" laneChangedFrom="7" laneChangedTo="4"/>
        </edge>
    </interval>
    <interval begin="1980.00" end="2040.00" id="e71laneData">
        <edge id="E7.142">
            <lane id="E7.142_0" sampledSeconds="534.17" traveltime="64.23" overlapTraveltime="64.64" density="11.06" laneDensity="11.06" occupancy="5.49" waitingTime="0.00" timeLoss="26.56" speed="12.53" speedRelative="0.90" departed="0" arrived="0" entered="9" left="10" laneChangedFrom="4" laneChangedTo="4"/>
            <lane id="E7.142_1" sampledSeconds="239.48" traveltime="59.79" overlapTraveltime="60.14" density="4.96" laneDensity="4.96" occupancy="2.46" waitingTime="0.00" timeLoss="18.41" speed="13.46" speedRelative="0.97" departed="0" arrived="0" entered="6" left="5" laneChangedFrom="4" laneChangedTo="4"/>
        </edge>
    </interval>
    <interval begin="2040.00" end="2100.00" id="e71laneData">
        <edge id="E7.142">
            <lane id="E7.142_0" sampledSeconds="544.06" traveltime="61.37" overlapTraveltime="61.78" density="11.27" laneDensity="11.27" occupancy="5.60" waitingTime="0.00" timeLoss="30.50" speed="13.11" speedRelative="0.94" departed="0" arrived="0" entered="5" left="10" laneChangedFrom="0" laneChangedTo="3"/>
            <lane id="E7.142_1" sampledSeconds="278.36" traveltime="59.22" overlapTraveltime="59.61" density="5.77" laneDensity="5.77" occupancy="2.87" waitingTime="0.00" timeLoss="20.70" speed="13.58" speedRelative="0.98" departed="0" arrived="0" entered="3" left="5" laneChangedFrom="3" laneChangedTo="0"/>
        </edge>
    </interval>
    <interval begin="2100.00" end="2160.00" id="e71laneData">
        <edge id="E7.142">
            <lane id="E7.142_0" sampledSeconds="525.51" traveltime="60.85" overlapTraveltime="61.23" density="10.88" laneDensity="10.88" occupancy="5.42" waitingTime="0.00" timeLoss="25.69" speed="13.22" speedRelative="0.95" departed="0" arrived="0" entered="6" left="6" laneChangedFrom="5" laneChangedTo="8"/>
            <lane id="E7.142_1" sampledSeconds="150.18" traveltime="56.23" overlapTraveltime="56.58" density="3.11" laneDensity="3.11" occupancy="1.54" waitingTime="0.00" timeLoss="6.05" speed="14.31" speedRelative="1.03" departed="0" arrived="0" entered="6" left="1" laneChangedFrom="8" laneChangedTo="5"/>
        </edge>
    </interval>
    <interval begin="2160.00" end="2220.00" id="e71laneData">
        <edge id="E7.142">
            <lane id="E7.142_0" sampledSeconds="405.21" traveltime="62.45" overlapTraveltime="62.83" density="8.39" laneDensity="8.39" occupancy="4.17" waitingTime="0.00" timeLoss="24.53" speed="12.89" speedRelative="0.93" departed="0" arrived="0" entered="4" left="9" laneChangedFrom="6" laneChangedTo="6"/>
            <lane id="E7.142_1" sampledSeconds="204.15" traveltime="60.46" overlapTraveltime="60.78" density="4.23" laneDensity="4.23" occupancy="2.09" waitingTime="0.00" timeLoss="13.94" speed="13.32" speedRelative="0.96" departed="0" arrived="0" entered="6" left="5" laneChangedFrom="6" laneChangedTo="6"/>
        </edge>
    </interval>
    <interval begin="2220.00" end="2280.00" id="e71laneData">
        <edge id="E7.142">
            <lane id="E7.142_0" sampledSeconds="409.44" traveltime="64.83" overlapTraveltime="65.24" density="8.48" laneDensity="8.48" occupancy="4.22" waitingTime="0.00" timeLoss="21.19" speed="12.41" speedRelative="0.89" departed="0" arrived="0" entered="3" left="5" laneChangedFrom="3" laneChangedTo="4"/>
            <lane id="E7.142_1" sampledSeconds="132.02" traveltime="61.14" overlapTraveltime="61.50" density="2.73" laneDensity="2.73" occupancy="1.35" waitingTime="0.00" timeLoss="8.69" speed="13.17" speedRelative="0.95" departed="0" arrived="0" entered="3" left="4" laneChangedFrom="4" laneChangedTo="3"/>
        </edge>
    </interval>
    <interval begin="2280.00" end="2340.00" id="e71laneData">
        <edge id="E7.142">
            <lane id="E7.142_0" sampledSeconds="438.48" traveltime="68.36" overlapTraveltime="68.78" density="9.08" laneDensity="9.08" occupancy="4.52" waitingTime="0.00" timeLoss="27.12" speed="11.77" speedRelative="0.85" departed="0" arrived="0" entered="6" left="4" laneChangedFrom="1" laneChangedTo="6"/>
            <lane id="E7.142_1" sampledSeconds="255.17" traveltime="62.14" overlapTraveltime="62.53" density="5.29" laneDensity="5.29" occupancy="2.62" waitingTime="0.00" timeLoss="15.64" speed="12.95" speedRelative="0.93" departed="0" arrived="0" entered="10" left="1" laneChangedFrom="6" laneChangedTo="1"/>
        </edge>
    </interval>
    <interval begin="2340.00" end="2400.00" id="e71laneData">
        <edge id="E7.142">
            <lane id="E7.142_0" sampledSeconds="721.52" traveltime="64.19" overlapTraveltime="64.60" density="14.94" laneDensity="14.94" occupancy="7.43" waitingTime="0.00" timeLoss="46.54" speed="12.53" speedRelative="0.90" departed="0" arrived="0" entered="8" left="13" laneChangedFrom="6" laneChangedTo="9"/>
            <lane id="E7.142_1" sampledSeconds="297.33" traveltime="57.32" overlapTraveltime="57.69" density="6.16" laneDensity="6.16" occupancy="3.06" waitingTime="0.00" timeLoss="13.13" speed="14.03" speedRelative="1.01" departed="0" arrived="0" entered="6" left="4" laneChangedFrom="9" laneChangedTo="6"/>
        </edge>
    </interval>
    <interval begin="2400.00" end="2460.00" id="e71laneData">
        <edge id="E7.142">
            <lane id="E7.142_0" sampledSeconds="494.08" traveltime="63.42" overlapTraveltime="63.81" density="10.23" laneDensity="10.23" occupancy="5.09" waitingTime="0.00" timeLoss="27.68" speed="12.69" speedRelative="0.91" departed="0" arrived="0" entered="4" left="10" laneChangedFrom="2" laneChangedTo="7"/>
            <lane id="E7.142_1" sampledSeconds="220.52" traveltime="59.30" overlapTraveltime="59.67" density="4.57" laneDensity="4.57" occupancy="2.26" waitingTime="0.00" timeLoss="15.04" speed="13.57" speedRelative="0.98" departed="0" arrived="0" entered="7" left="4" laneChangedFrom="7" laneChangedTo="2"/>
        </edge>
    </interval>
    <interval begin="2460.00" end="2520.00" id="e71laneData">
        <edge id="E7.142">