<?xml version="1.0" encoding="UTF-8"?>

<!-- generated on 2024-06-05 18:47:32 by Eclipse SUMO GUI Version 1.19.0
<configuration xmlns:xsi="http://www.w3.org/2001/XMLSchema-instance" xsi:noNamespaceSchemaLocation="http://sumo.dlr.de/xsd/sumoConfiguration.xsd">

    <input>
        <net-file value="C:\Users\joshu\Code\sumo-str-sim\pureba\net.net.xml"/>
        <route-files value="C:\Users\joshu\Code\sumo-str-sim\pureba\net.rou.xml"/>
        <additional-files value="C:\Users\joshu\Code\sumo-str-sim\pureba\net.add.xml,C:\Users\joshu\Code\sumo-str-sim\pureba\sumoNet.med.add.xml"/>
    </input>

</configuration>
-->

<meandata xmlns:xsi="http://www.w3.org/2001/XMLSchema-instance" xsi:noNamespaceSchemaLocation="http://sumo.dlr.de/xsd/meandata_file.xsd">
    <interval begin="0.00" end="60.00" id="e71laneData"/>
    <interval begin="60.00" end="120.00" id="e71laneData"/>
    <interval begin="120.00" end="180.00" id="e71laneData">
        <edge id="E7.142">
            <lane id="E7.142_0" sampledSeconds="234.62" traveltime="59.89" overlapTraveltime="60.26" density="4.86" laneDensity="4.86" occupancy="2.42" waitingTime="0.00" timeLoss="11.33" speed="13.44" speedRelative="0.97" departed="0" arrived="0" entered="7" left="0" laneChangedFrom="2" laneChangedTo="3"/>
            <lane id="E7.142_1" sampledSeconds="58.46" traveltime="57.87" overlapTraveltime="58.23" density="1.21" laneDensity="1.21" occupancy="0.60" waitingTime="0.00" timeLoss="2.62" speed="13.91" speedRelative="1.00" departed="0" arrived="0" entered="3" left="0" laneChangedFrom="3" laneChangedTo="2"/>
        </edge>
    </interval>
    <interval begin="180.00" end="240.00" id="e71laneData">
        <edge id="E7.142">
            <lane id="E7.142_0" sampledSeconds="529.53" traveltime="62.53" overlapTraveltime="62.90" density="10.97" laneDensity="10.97" occupancy="5.45" waitingTime="0.00" timeLoss="28.96" speed="12.87" speedRelative="0.93" departed="0" arrived="0" entered="6" left="8" laneChangedFrom="2" laneChangedTo="6"/>
            <lane id="E7.142_1" sampledSeconds="179.03" traveltime="56.30" overlapTraveltime="56.65" density="3.71" laneDensity="3.71" occupancy="1.84" waitingTime="0.00" timeLoss="10.53" speed="14.29" speedRelative="1.03" departed="0" arrived="0" entered="9" left="1" laneChangedFrom="6" laneChangedTo="2"/>
        </edge>
    </interval>
    <interval begin="240.00" end="300.00" id="e71laneData">
        <edge id="E7.142">
            <lane id="E7.142_0" sampledSeconds="681.40" traveltime="61.69" overlapTraveltime="62.07" density="14.11" laneDensity="14.11" occupancy="7.02" waitingTime="0.00" timeLoss="33.20" speed="13.04" speedRelative="0.94" departed="0" arrived="0" entered="7" left="12" laneChangedFrom="3" laneChangedTo="8"/>
            <lane id="E7.142_1" sampledSeconds="238.42" traveltime="55.81" overlapTraveltime="56.16" density="4.94" laneDensity="4.94" occupancy="2.45" waitingTime="0.00" timeLoss="10.97" speed="14.42" speedRelative="1.04" departed="0" arrived="0" entered="6" left="5" laneChangedFrom="8" laneChangedTo="3"/>
        </edge>
    </interval>
    <interval begin="300.00" end="360.00" id="e71laneData">
        <edge id="E7.142">
            <lane id="E7.142_0" sampledSeconds="629.52" traveltime="63.67" overlapTraveltime="64.07" density="13.04" laneDensity="13.04" occupancy="6.48" waitingTime="0.00" timeLoss="34.19" speed="12.64" speedRelative="0.91" departed="0" arrived="0" entered="9" left="10" laneChangedFrom="5" laneChangedTo="7"/>
            <lane id="E7.142_1" sampledSeconds="294.44" traveltime="58.74" overlapTraveltime="59.10" density="6.10" laneDensity="6.10" occupancy="3.03" waitingTime="0.00" timeLoss="14.35" speed="13.70" speedRelative="0.99" departed="0" arrived="0" entered="8" left="3" laneChangedFrom="7" laneChangedTo="5"/>
        </edge>
    </interval>
    <interval begin="360.00" end="420.00" id="e71laneData">
        <edge id="E7.142">
            <lane id="E7.142_0" sampledSeconds="641.76" traveltime="60.94" overlapTraveltime="61.32" density="13.29" laneDensity="13.29" occupancy="6.61" waitingTime="0.00" timeLoss="31.75" speed="13.20" speedRelative="0.95" departed="0" arrived="0" entered="9" left="11" laneChangedFrom="3" laneChangedTo="6"/>
            <lane id="E7.142_1" sampledSeconds="364.76" traveltime="59.09" overlapTraveltime="59.45" density="7.56" laneDensity="7.56" occupancy="3.75" waitingTime="0.00" timeLoss="17.52" speed="13.62" speedRelative="0.98" departed="0" arrived="0" entered="8" left="6" laneChangedFrom="6" laneChangedTo="3"/>
        </edge>
    </interval>
    <interval begin="420.00" end="480.00" id="e71laneData">
        <edge id="E7.142">
            <lane id="E7.142_0" sampledSeconds="696.79" traveltime="63.22" overlapTraveltime="63.61" density="14.43" laneDensity="14.43" occupancy="7.18" waitingTime="0.00" timeLoss="42.69" speed="12.73" speedRelative="0.92" departed="0" arrived="0" entered="9" left="9" laneChangedFrom="5" laneChangedTo="5"/>
            <lane id="E7.142_1" sampledSeconds="364.36" traveltime="59.47" overlapTraveltime="59.85" density="7.55" laneDensity="7.55" occupancy="3.74" waitingTime="0.00" timeLoss="18.10" speed="13.53" speedRelative="0.97" departed="0" arrived="0" entered="8" left="6" laneChangedFrom="5" laneChangedTo="5"/>
        </edge>
    </interval>
    <interval begin="480.00" end="540.00" id="e71laneData">
        <edge id="E7.142">
            <lane id="E7.142_0" sampledSeconds="579.33" traveltime="61.89" overlapTraveltime="62.27" density="12.00" laneDensity="12.00" occupancy="5.96" waitingTime="0.00" timeLoss="30.83" speed="13.00" speedRelative="0.94" departed="0" arrived="0" entered="7" left="11" laneChangedFrom="5" laneChangedTo="7"/>
            <lane id="E7.142_1" sampledSeconds="385.91" traveltime="56.07" overlapTraveltime="56.41" density="7.99" laneDensity="7.99" occupancy="3.97" waitingTime="0.00" timeLoss="18.59" speed="14.35" speedRelative="1.03" departed="0" arrived="0" entered="9" left="7" laneChangedFrom="7" laneChangedTo="5"/>
        </edge>
    </interval>
    <interval begin="540.00" end="600.00" id="e71laneData">
        <edge id="E7.142">
            <lane id="E7.142_0" sampledSeconds="554.66" traveltime="62.01" overlapTraveltime="62.39" density="11.49" laneDensity="11.49" occupancy="5.72" waitingTime="0.00" timeLoss="27.25" speed="12.98" speedRelative="0.93" departed="0" arrived="0" entered="5" left="8" laneChangedFrom="1" laneChangedTo="4"/>
            <lane id="E7.142_1" sampledSeconds="277.29" traveltime="55.28" overlapTraveltime="55.62" density="5.74" laneDensity="5.74" occupancy="2.85" waitingTime="0.00" timeLoss="14.75" speed="14.56" speedRelative="1.05" departed="0" arrived="0" entered="7" left="6" laneChangedFrom="4" laneChangedTo="1"/>
        </edge>
    </interval>
    <interval begin="600.00" end="660.00" id="e71laneData">
        <edge id="E7.142">
            <lane id="E7.142_0" sampledSeconds="549.54" traveltime="62.60" overlapTraveltime="63.00" density="11.38" laneDensity="11.38" occupancy="5.65" waitingTime="0.00" timeLoss="31.82" speed="12.85" speedRelative="0.93" departed="0" arrived="0" entered="7" left="11" laneChangedFrom="5" laneChangedTo="6"/>
            <lane id="E7.142_1" sampledSeconds="205.65" traveltime="58.83" overlapTraveltime="59.17" density="4.26" laneDensity="4.26" occupancy="2.11" waitingTime="0.00" timeLoss="11.81" speed="13.68" speedRelative="0.99" departed="0" arrived="0" entered="6" left="4" laneChangedFrom="6" laneChangedTo="5"/>
        </edge>
    </interval>
    <interval begin="660.00" end="720.00" id="e71laneData">
        <edge id="E7.142">
            <lane id="E7.142_0" sampledSeconds="560.55" traveltime="66.29" overlapTraveltime="66.71" density="11.61" laneDensity="11.61" occupancy="5.77" waitingTime="0.00" timeLoss="34.52" speed="12.14" speedRelative="0.87" departed="0" arrived="0" entered="7" left="7" laneChangedFrom="2" laneChangedTo="4"/>
            <lane id="E7.142_1" sampledSeconds="424.08" traveltime="60.44" overlapTraveltime="60.80" density="8.78" laneDensity="8.78" occupancy="4.37" waitingTime="0.00" timeLoss="32.37" speed="13.32" speedRelative="0.96" departed="0" arrived="0" entered="10" left="5" laneChangedFrom="4" laneChangedTo="2"/>
        </edge>
    </interval>
    <interval begin="720.00" end="780.00" id="e71laneData">
        <edge id="E7.142">
            <lane id="E7.142_0" sampledSeconds="555.21" traveltime="61.90" overlapTraveltime="62.30" density="11.50" laneDensity="11.50" occupancy="5.72" waitingTime="0.00" timeLoss="33.41" speed="13.00" speedRelative="0.94" departed="0" arrived="0" entered="5" left="10" laneChangedFrom="2" laneChangedTo="7"/>
            <lane id="E7.142_1" sampledSeconds="453.38" traveltime="56.85" overlapTraveltime="57.22" density="9.39" laneDensity="9.39" occupancy="4.67" waitingTime="0.00" timeLoss="28.95" speed="14.15" speedRelative="1.02" departed="0" arrived="0" entered="7" left="8" laneChangedFrom="7" laneChangedTo="2"/>
        </edge>
    </interval>
    <interval begin="780.00" end="840.00" id="e71laneData">
        <edge id="E7.142">
            <lane id="E7.142_0" sampledSeconds="488.15" traveltime="61.69" overlapTraveltime="62.05" density="10.11" laneDensity="10.11" occupancy="5.02" waitingTime="0.00" timeLoss="24.96" speed="13.05" speedRelative="0.94" departed="0" arrived="0" entered="6" left="9" laneChangedFrom="2" laneChangedTo="6"/>
            <lane id="E7.142_1" sampledSeconds="288.73" traveltime="57.85" overlapTraveltime="58.19" density="5.98" laneDensity="5.98" occupancy="2.97" waitingTime="0.00" timeLoss="18.07" speed="13.91" speedRelative="1.00" departed="0" arrived="0" entered="9" left="2" laneChangedFrom="6" laneChangedTo="2"/>
        </edge>
    </interval>
    <interval begin="840.00" end="900.00" id="e71laneData">
        <edge id="E7.142">
            <lane id="E7.142_0" sampledSeconds="582.14" traveltime="66.01" overlapTraveltime="66.40" density="12.06" laneDensity="12.06" occupancy="5.99" waitingTime="0.00" timeLoss="33.62" speed="12.19" speedRelative="0.88" departed="0" arrived="0" entered="9" left="10" laneChangedFrom="3" laneChangedTo="4"/>
            <lane id="E7.142_1" sampledSeconds="288.61" traveltime="55.06" overlapTraveltime="55.39" density="5.98" laneDensity="5.98" occupancy="2.96" waitingTime="0.00" timeLoss="16.96" speed="14.62" speedRelative="1.05" departed="0" arrived="0" entered="10" left="5" laneChangedFrom="4" laneChangedTo="3"/>
        </edge>
    </interval>
    <interval begin="900.00" end="960.00" id="e71laneData">
        <edge id="E7.142">
            <lane id="E7.142_0" sampledSeconds="680.40" traveltime="66.54" overlapTraveltime="66.96" density="14.09" laneDensity="14.09" occupancy="7.01" waitingTime="0.00" timeLoss="37.99" speed="12.09" speedRelative="0.87" departed="0" arrived="0" entered="9" left="10" laneChangedFrom="6" laneChangedTo="6"/>
            <lane id="E7.142_1" sampledSeconds="569.68" traveltime="59.37" overlapTraveltime="59.77" density="11.80" laneDensity="11.80" occupancy="5.87" waitingTime="0.00" timeLoss="44.79" speed="13.55" speedRelative="0.98" departed="0" arrived="0" entered="9" left="9" laneChangedFrom="6" laneChangedTo="6"/>
        </edge>
    </interval>
    <interval begin="960.00" end="1020.00" id="e71laneData">
        <edge id="E7.142">
            <lane id="E7.142_0" sampledSeconds="558.95" traveltime="60.41" overlapTraveltime="60.81" density="11.58" laneDensity="11.58" occupancy="5.76" waitingTime="0.00" timeLoss="35.50" speed="13.32" speedRelative="0.96" departed="0" arrived="0" entered="4" left="11" laneChangedFrom="3" laneChangedTo="8"/>
            <lane id="E7.142_1" sampledSeconds="340.90" traveltime="58.24" overlapTraveltime="58.61" density="7.06" laneDensity="7.06" occupancy="3.51" waitingTime="0.00" timeLoss="25.92" speed="13.81" speedRelative="0.99" departed="0" arrived="0" entered="6" left="6" laneChangedFrom="8" laneChangedTo="3"/>
        </edge>
    </interval>
    <interval begin="1020.00" end="1080.00" id="e71laneData">
        <edge id="E7.142">
            <lane id="E7.142_0" sampledSeconds="484.32" traveltime="64.85" overlapTraveltime="65.23" density="10.03" laneDensity="10.03" occupancy="4.98" waitingTime="0.00" timeLoss="26.18" speed="12.41" speedRelative="0.89" departed="0" arrived="0" entered="10" left="8" laneChangedFrom="1" laneChangedTo="6"/>
            <lane id="E7.142_1" sampledSeconds="272.69" traveltime="57.51" overlapTraveltime="57.88" density="5.65" laneDensity="5.65" occupancy="2.81" waitingTime="0.00" timeLoss="17.97" speed="13.99" speedRelative="1.01" departed="0" arrived="0" entered="6" left="3" laneChangedFrom="6" laneChangedTo="1"/>
        </edge>
    </interval>
    <interval begin="1080.00" end="1140.00" id="e71laneData">
        <edge id="E7.142">
            <lane id="E7.142_0" sampledSeconds="694.43" traveltime="64.94" overlapTraveltime="65.33" density="14.38" laneDensity="14.38" occupancy="7.15" waitingTime="0.00" timeLoss="36.08" speed="12.39" speedRelative="0.89" departed="0" arrived="0" entered="8" left="12" laneChangedFrom="5" laneChangedTo="4"/>
            <lane id="E7.142_1" sampledSeconds="369.71" traveltime="56.24" overlapTraveltime="56.59" density="7.66" laneDensity="7.66" occupancy="3.81" waitingTime="0.00" timeLoss="19.71" speed="14.31" speedRelative="1.03" departed="0" arrived="0" entered="8" left="4" laneChangedFrom="4" laneChangedTo="5"/>
        </edge>
    </interval>
    <interval begin="1140.00" end="1200.00" id="e71laneData">
        <edge id="E7.142">
            <lane id="E7.142_0" sampledSeconds="686.81" traveltime="65.29" overlapTraveltime="65.70" density="14.23" laneDensity="14.23" occupancy="7.07" waitingTime="0.00" timeLoss="35.36" speed="12.32" speedRelative="0.89" departed="0" arrived="0" entered="9" left="10" laneChangedFrom="3" laneChangedTo="6"/>
            <lane id="E7.142_1" sampledSeconds="433.80" traveltime="56.80" overlapTraveltime="57.15" density="8.98" laneDensity="8.98" occupancy="4.46" waitingTime="0.00" timeLoss="25.85" speed="14.17" speedRelative="1.02" departed="0" arrived="0" entered="11" left="6" laneChangedFrom="6" laneChangedTo="3"/>
        </edge>
    </interval>
    <interval begin="1200.00" end="1260.00" id="e71laneData">
        <edge id="E7.142">
            <lane id="E7.142_0" sampledSeconds="597.40" traveltime="63.43" overlapTraveltime="63.82" density="12.37" laneDensity="12.37" occupancy="6.15" waitingTime="0.00" timeLoss="31.11" speed="12.69" speedRelative="0.91" departed="0" arrived="0" entered="7" left="11" laneChangedFrom="5" laneChangedTo="6"/>
            <lane id="E7.142_1" sampledSeconds="378.66" traveltime="57.30" overlapTraveltime="57.69" density="7.84" laneDensity="7.84" occupancy="3.89" waitingTime="0.00" timeLoss="20.90" speed="14.04" speedRelative="1.01" departed="0" arrived="0" entered="5" left="10" laneChangedFrom="6" laneChangedTo="5"/>
        </edge>
    </interval>
    <interval begin="1260.00" end="1320.00" id="e71laneData">
        <edge id="E7.142">
            <lane id="E7.142_0" sampledSeconds="622.47" traveltime="60.60" overlapTraveltime="60.96" density="12.89" laneDensity="12.89" occupancy="6.41" waitingTime="0.00" timeLoss="43.68" speed="13.28" speedRelative="0.96" departed="0" arrived="0" entered="7" left="10" laneChangedFrom="2" laneChangedTo="8"/>
            <lane id="E7.142_1" sampledSeconds="268.80" traveltime="59.86" overlapTraveltime="60.23" density="5.57" laneDensity="5.57" occupancy="2.76" waitingTime="0.00" timeLoss="21.71" speed="13.44" speedRelative="0.97" departed="0" arrived="0" entered="9" left="1" laneChangedFrom="8" laneChangedTo="2"/>
        </edge>
    </interval>
    <interval begin="1320.00" end="1380.00" id="e71laneData">
        <edge id="E7.142">
            <lane id="E7.142_0" sampledSeconds="598.02" traveltime="62.64" overlapTraveltime="63.01" density="12.39" laneDensity="12.39" occupancy="6.15" waitingTime="0.00" timeLoss="39.70" speed="12.85" speedRelative="0.93" departed="0" arrived="0" entered="9" left="11" laneChangedFrom="4" laneChangedTo="3"/>
            <lane id="E7.142_1" sampledSeconds="349.68" traveltime="59.34" overlapTraveltime="59.73" density="7.24" laneDensity="7.24" occupancy="3.60" waitingTime="0.00" timeLoss="31.89" speed="13.56" speedRelative="0.98" departed="0" arrived="0" entered="7" left="4" laneChangedFrom="3" laneChangedTo="4"/>
        </edge>
    </interval>
    <interval begin="1380.00" end="1440.00" id="e71laneData">
        <edge id="E7.142">
            <lane id="E7.142_0" sampledSeconds="609.21" traveltime="67.04" overlapTraveltime="67.45" density="12.62" laneDensity="12.62" occupancy="6.27" waitingTime="0.00" timeLoss="37.33" speed="12.00" speedRelative="0.86" departed="0" arrived="0" entered="9" left="9" laneChangedFrom="2" laneChangedTo="7"/>
            <lane id="E7.142_1" sampledSeconds="427.20" traveltime="59.56" overlapTraveltime="59.94" density="8.85" laneDensity="8.85" occupancy="4.39" waitingTime="0.00" timeLoss="26.33" speed="13.51" speedRelative="0.97" departed="0" arrived="0" entered="12" left="8" laneChangedFrom="7" laneChangedTo="2"/>
        </edge>
    </interval>
    <interval begin="1440.00" end="1500.00" id="e71laneData">
        <edge id="E7.142">
            <lane id="E7.142_0" sampledSeconds="615.00" traveltime="64.67" overlapTraveltime="65.08" density="12.74" laneDensity="12.74" occupancy="6.34" waitingTime="0.00" timeLoss="39.71" speed="12.44" speedRelative="0.90" departed="0" arrived="0" entered="5" left="12" laneChangedFrom="5" laneChangedTo="7"/>
            <lane id="E7.142_1" sampledSeconds="528.65" traveltime="55.77" overlapTraveltime="56.13" density="10.95" laneDensity="10.95" occupancy="5.45" waitingTime="0.00" timeLoss="29.97" speed="14.43" speedRelative="1.04" departed="0" arrived="0" entered="7" left="9" laneChangedFrom="7" laneChangedTo="5"/>
        </edge>
    </interval>
    <interval begin="1500.00" end="1560.00" id="e71laneData">
        <edge id="E7.142">
            <lane id="E7.142_0" sampledSeconds="439.88" traveltime="63.15" overlapTraveltime="63.55" density="9.11" laneDensity="9.11" occupancy="4.53" waitingTime="0.00" timeLoss="26.18" speed="12.74" speedRelative="0.92" departed="0" arrived="0" entered="6" left="8" laneChangedFrom="1" laneChangedTo="5"/>
            <lane id="E7.142_1" sampledSeconds="310.20" traveltime="58.94" overlapTraveltime="59.29" density="6.42" laneDensity="6.42" occupancy="3.19" waitingTime="0.00" timeLoss="17.67" speed="13.65" speedRelative="0.98" departed="0" arrived="0" entered="9" left="4" laneChangedFrom="5" laneChangedTo="1"/>
        </edge>
    </interval>
    <interval begin="1560.00" end="1620.00" id="e71laneData">
        <edge id="E7.142">
            <lane id="E7.142_0" sampledSeconds="573.16" traveltime="64.42" overlapTraveltime="64.82" density="11.87" laneDensity="11.87" occupancy="5.90" waitingTime="0.00" timeLoss="39.93" speed="12.49" speedRelative="0.90" departed="0" arrived="0" entered="5" left="10" laneChangedFrom="3" laneChangedTo="9"/>
            <lane id="E7.142_1" sampledSeconds="348.52" traveltime="59.37" overlapTraveltime="59.74" density="7.22" laneDensity="7.22" occupancy="3.59" waitingTime="0.00" timeLoss="19.33" speed="13.55" speedRelative="0.98" departed="0" arrived="0" entered="8" left="4" laneChangedFrom="9" laneChangedTo="3"/>
        </edge>
    </interval>
    <interval begin="1620.00" end="1680.00" id="e71laneData">
        <edge id="E7.142">
            <lane id="E7.142_0" sampledSeconds="566.32" traveltime="65.08" overlapTraveltime="65.48" density="11.73" laneDensity="11.73" occupancy="5.83" waitingTime="0.00" timeLoss="31.31" speed="12.37" speedRelative="0.89" departed="0" arrived="0" entered="6" left="11" laneChangedFrom="3" laneChangedTo="4"/>
            <lane id="E7.142_1" sampledSeconds="267.05" traveltime="59.81" overlapTraveltime="60.18" density="5.53" laneDensity="5.53" occupancy="2.75" waitingTime="0.00" timeLoss="13.25" speed="13.45" speedRelative="0.97" departed="0" arrived="0" entered="7" left="3" laneChangedFrom="4" laneChangedTo="3"/>
        </edge>
    </interval>
    <interval begin="1680.00" end="1740.00" id="e71laneData">
        <edge id="E7.142">
            <lane id="E7.142_0" sampledSeconds="668.47" traveltime="65.03" overlapTraveltime="65.43" density="13.85" laneDensity="13.85" occupancy="6.89" waitingTime="0.00" timeLoss="41.87" speed="12.37" speedRelative="0.89" departed="0" arrived="0" entered="8" left="8" laneChangedFrom="5" laneChangedTo="9"/>
            <lane id="E7.142_1" sampledSeconds="415.32" traveltime="59.03" overlapTraveltime="59.40" density="8.60" laneDensity="8.60" occupancy="4.28" waitingTime="0.00" timeLoss="23.08" speed="13.63" speedRelative="0.98" departed="0" arrived="0" entered="8" left="3" laneChangedFrom="9" laneChangedTo="5"/>
        </edge>
    </interval>
    <interval begin="1740.00" end="1800.00" id="e71laneData">
        <edge id="E7.142">
            <lane id="E7.142_0" sampledSeconds="497.91" traveltime="62.10" overlapTraveltime="62.51" density="10.31" laneDensity="10.31" occupancy="5.12" waitingTime="0.00" timeLoss="29.71" speed="12.95" speedRelative="0.93" departed="0" arrived="0" entered="9" left="10" laneChangedFrom="4" laneChangedTo="4"/>
            <lane id="E7.142_1" sampledSeconds="282.05" traveltime="57.51" overlapTraveltime="57.90" density="5.84" laneDensity="5.84" occupancy="2.89" waitingTime="0.00" timeLoss="16.17" speed="13.98" speedRelative="1.01" departed="0" arrived="0" entered="8" left="9" laneChangedFrom="4" laneChangedTo="4"/>
        </edge>
    </interval>
    <interval begin="1800.00" end="1860.00" id="e71laneData">
        <edge id="E7.142">
            <lane id="E7.142_0" sampledSeconds="713.53" traveltime="60.96" overlapTraveltime="61.35" density="14.78" laneDensity="14.78" occupancy="7.35" waitingTime="0.00" timeLoss="43.07" speed="13.20" speedRelative="0.95" departed="0" arrived="0" entered="8" left="12" laneChangedFrom="5" laneChangedTo="7"/>
            <lane id="E7.142_1" sampledSeconds="292.04" traveltime="56.42" overlapTraveltime="56.78" density="6.05" laneDensity="6.05" occupancy="3.01" waitingTime="0.00" timeLoss="16.19" speed="14.26" speedRelative="1.03" departed="0" arrived="0" entered="5" left="5" laneChangedFrom="7" laneChangedTo="5"/>
        </edge>
    </interval>
    <interval begin="1860.00" end="1920.00" id="e71laneData">
        <edge id="E7.142">
            <lane id="E7.142_0" sampledSeconds="541.86" traveltime="63.27" overlapTraveltime="63.67" density="11.22" laneDensity="11.22" occupancy="5.58" waitingTime="0.00" timeLoss="27.53" speed="12.72" speedRelative="0.92" departed="0" arrived="0" entered="9" left="8" laneChangedFrom="3" laneChangedTo="3"/>
            <lane id="E7.142_1" sampledSeconds="282.64" traveltime="59.25" overlapTraveltime="59.59" density="5.85" laneDensity="5.85" occupancy="2.91" waitingTime="0.00" timeLoss="14.55" speed="13.59" speedRelative="0.98" departed="0" arrived="0" entered="7" left="4" laneChangedFrom="3" laneChangedTo="3"/>
        </edge>
    </interval>
    <interval begin="1920.00" end="1980.00" id="e71laneData">
        <edge id="E7.142">
            <lane id="E7.142_0" sampledSeconds="646.98" traveltime="63.64" overlapTraveltime="64.05" density="13.40" laneDensity="13.40" occupancy="6.66" waitingTime="0.00" timeLoss="37.40" speed="12.64" speedRelative="0.91" departed="0" arrived="0" entered="7" left="10" laneChangedFrom="4" laneChangedTo="10"/>
            <lane id="E7.142_1" sampledSeconds="385.61" traveltime="57.45" overlapTraveltime="57.80" density="7.99" laneDensity="7.99" occupancy="3.97" waitingTime="0.00" timeLoss="22.64" speed="14.01" speedRelative="1.01" departed="0" arrived="0" entered="8" left="6" laneChangedFrom="10" laneChangedTo="4"/>
        </edge>
    </interval>
    <interval begin="1980.00" end="2040.00" id="e71laneData">
        <edge id="E7.142">
            <lane id="E7.142_0" sampledSeconds="533.73" traveltime="62.20" overlapTraveltime="62.60" density="11.05" laneDensity="11.05" occupancy="5.50" waitingTime="0.00" timeLoss="30.27" speed="12.93" speedRelative="0.93" departed="0" arrived="0" entered="4" left="12" laneChangedFrom="2" laneChangedTo="5"/>
            <lane id="E7.142_1" sampledSeconds="159.25" traveltime="57.78" overlapTraveltime="58.11" density="3.30" laneDensity="3.30" occupancy="1.63" waitingTime="0.00" timeLoss="11.11" speed="13.93" speedRelative="1.00" departed="0" arrived="0" entered="9" left="3" laneChangedFrom="5" laneChangedTo="2"/>
        </edge>
    </interval>
    <interval begin="2040.00" end="2100.00" id="e71laneData">
        <edge id="E7.142">
            <lane id="E7.142_0" sampledSeconds="599.91" traveltime="61.77" overlapTraveltime="62.16" density="12.43" laneDensity="12.43" occupancy="6.18" waitingTime="0.00" timeLoss="36.41" speed="13.03" speedRelative="0.94" departed="0" arrived="0" entered="9" left="9" laneChangedFrom="1" laneChangedTo="3"/>
            <lane id="E7.142_1" sampledSeconds="279.79" traveltime="61.32" overlapTraveltime="61.69" density="5.80" laneDensity="5.80" occupancy="2.88" waitingTime="0.00" timeLoss="24.74" speed="13.13" speedRelative="0.94" departed="0" arrived="0" entered="4" left="5" laneChangedFrom="3" laneChangedTo="1"/>
        </edge>
    </interval>
    <interval begin="2100.00" end="2160.00" id="e71laneData">
        <edge id="E7.142">
            <lane id="E7.142_0" sampledSeconds="560.33" traveltime="64.64" overlapTraveltime="65.04" density="11.61" laneDensity="11.61" occupancy="5.77" waitingTime="0.00" timeLoss="39.39" speed="12.45" speedRelative="0.90" departed="0" arrived="0" entered="5" left="9" laneChangedFrom="3" laneChangedTo="7"/>
            <lane id="E7.142_1" sampledSeconds="280.71" traveltime="61.35" overlapTraveltime="61.73" density="5.81" laneDensity="5.81" occupancy="2.89" waitingTime="0.00" timeLoss="23.70" speed="13.12" speedRelative="0.94" departed="0" arrived="0" entered="7" left="2" laneChangedFrom="7" laneChangedTo="3"/>
        </edge>
    </interval>
    <interval begin="2160.00" end="2220.00" id="e71laneData">
        <edge id="E7.142">
            <lane id="E7.142_0" sampledSeconds="572.82" traveltime="63.27" overlapTraveltime="63.67" density="11.86" laneDensity="11.86" occupancy="5.90" waitingTime="0.00" timeLoss="33.46" speed="12.72" speedRelative="0.92" departed="0" arrived="0" entered="6" left="8" laneChangedFrom="3" laneChangedTo="5"/>
            <lane id="E7.142_1" sampledSeconds="242.79" traveltime="58.84" overlapTraveltime="59.20" density="5.03" laneDensity="5.03" occupancy="2.49" waitingTime="0.00" timeLoss="13.19" speed="13.68" speedRelative="0.98" departed="0" arrived="0" entered="7" left="5" laneChangedFrom="5" laneChangedTo="3"/>
        </edge>
    </interval>
    <interval begin="2220.00" end="2280.00" id="e71laneData">
        <edge id="E7.142">
            <lane id="E7.142_0" sampledSeconds="567.84" traveltime="63.66" overlapTraveltime="64.03" density="11.76" laneDensity="11.76" occupancy="5.84" waitingTime="0.00" timeLoss="29.15" speed="12.64" speedRelative="0.91" departed="0" arrived="0" entered="10" left="10" laneChangedFrom="4" laneChangedTo="4"/>
            <lane id="E7.142_1" sampledSeconds="292.02" traveltime="60.16" overlapTraveltime="60.53" density="6.05" laneDensity="6.05" occupancy="3.00" waitingTime="0.00" timeLoss="16.51" speed="13.38" speedRelative="0.96" departed="0" arrived="0" entered="7" left="4" laneChangedFrom="4" laneChangedTo="4"/>
        </edge>
    </interval>
    <interval begin="2280.00" end="2340.00" id="e71laneData">
        <edge id="E7.142">
            <lane id="E7.142_0" sampledSeconds="737.19" traveltime="67.30" overlapTraveltime="67.70" density="15.27" laneDensity="15.27" occupancy="7.60" waitingTime="0.00" timeLoss="52.59" speed="11.96" speedRelative="0.86" departed="0" arrived="0" entered="9" left="8" laneChangedFrom="7" laneChangedTo="12"/>
            <lane id="E7.142_1" sampledSeconds="393.87" traveltime="59.45" overlapTraveltime="59.82" density="8.16" laneDensity="8.16" occupancy="4.05" waitingTime="0.00" timeLoss="25.28" speed="13.54" speedRelative="0.97" departed="0" arrived="0" entered="8" left="5" laneChangedFrom="12" laneChangedTo="7"/>
        </edge>
    </interval>
    <interval begin="2340.00" end="2400.00" id="e71laneData">
        <edge id="E7.142">
            <lane id="E7.142_0" sampledSeconds="657.78" traveltime="66.60" overlapTraveltime="67.02" density="13.62" laneDensity="13.62" occupancy="6.77" waitingTime="0.00" timeLoss="58.59" speed="12.08" speedRelative="0.87" departed="0" arrived="0" entered="8" left="11" laneChangedFrom="6" laneChangedTo="5"/>
            <lane id="E7.142_1" sampledSeconds="392.53" traveltime="62.35" overlapTraveltime="62.69" density="8.13" laneDensity="8.13" occupancy="4.04" waitingTime="0.00" timeLoss="43.53" speed="12.92" speedRelative="0.93" departed="0" arrived="0" entered="7" left="7" laneChangedFrom="5" laneChangedTo="6"/>
        </edge>
    </interval>
    <interval begin="2400.00" end="2460.00" id="e71laneData">
        <edge id="E7.142">
            <lane id="E7.142_0" sampledSeconds="562.47" traveltime="65.25" overlapTraveltime="65.63" density="11.65" laneDensity="11.65" occupancy="5.79" waitingTime="0.00" timeLoss="34.88" speed="12.34" speedRelative="0.89" departed="0" arrived="0" entered="5" left="12" laneChangedFrom="2" laneChangedTo="6"/>
            <lane id="E7.142_1" sampledSeconds="242.12" traveltime="57.70" overlapTraveltime="58.07" density="5.01" laneDensity="5.01" occupancy="2.49" waitingTime="0.00" timeLoss="11.50" speed="13.94" speedRelative="1.00" departed="0" arrived="0" entered="7" left="4" laneChangedFrom="6" laneChangedTo="2"/>
        </edge>
    </interval>
    <interval begin="2460.00" end="2520.00" id="e71laneData">
        <edge id="E7.142">