<?xml version="1.0" encoding="UTF-8"?>

<!-- generated on 2024-06-11 13:43:22 by Eclipse SUMO GUI Version 1.19.0
<configuration xmlns:xsi="http://www.w3.org/2001/XMLSchema-instance" xsi:noNamespaceSchemaLocation="http://sumo.dlr.de/xsd/sumoConfiguration.xsd">

    <input>
        <net-file value="C:\Users\joshu\Code\sumo-str-sim\pureba\net.net.xml"/>
        <route-files value="C:\Users\joshu\Code\sumo-str-sim\pureba\net.rou.xml"/>
        <additional-files value="C:\Users\joshu\Code\sumo-str-sim\pureba\net.add.xml,C:\Users\joshu\Code\sumo-str-sim\pureba\sumoNet.med.add.xml"/>
    </input>

</configuration>
-->

<meandata xmlns:xsi="http://www.w3.org/2001/XMLSchema-instance" xsi:noNamespaceSchemaLocation="http://sumo.dlr.de/xsd/meandata_file.xsd">
    <interval begin="0.00" end="60.00" id="e7laneData">
        <edge id="E7">
            <lane id="E7_0" sampledSeconds="520.00" traveltime="140.71" overlapTraveltime="141.14" density="5.39" laneDensity="5.39" occupancy="2.69" waitingTime="0.00" timeLoss="82.01" speed="11.44" speedRelative="0.82" departed="20" arrived="0" entered="0" left="0" laneChangedFrom="7" laneChangedTo="1"/>
            <lane id="E7_1" sampledSeconds="90.00" traveltime="118.12" overlapTraveltime="118.48" density="0.93" laneDensity="0.93" occupancy="0.47" waitingTime="0.00" timeLoss="5.65" speed="13.62" speedRelative="0.98" departed="0" arrived="0" entered="0" left="0" laneChangedFrom="1" laneChangedTo="7"/>
        </edge>
    </interval>
    <interval begin="60.00" end="120.00" id="e7laneData">
        <edge id="E7">
            <lane id="E7_0" sampledSeconds="1349.00" traveltime="133.18" overlapTraveltime="133.59" density="13.97" laneDensity="13.97" occupancy="6.99" waitingTime="0.00" timeLoss="138.69" speed="12.08" speedRelative="0.87" departed="20" arrived="0" entered="0" left="0" laneChangedFrom="10" laneChangedTo="6"/>
            <lane id="E7_1" sampledSeconds="461.00" traveltime="120.16" overlapTraveltime="120.54" density="4.77" laneDensity="4.77" occupancy="2.39" waitingTime="0.00" timeLoss="33.08" speed="13.39" speedRelative="0.96" departed="0" arrived="0" entered="0" left="0" laneChangedFrom="6" laneChangedTo="10"/>
        </edge>
    </interval>
    <interval begin="120.00" end="180.00" id="e7laneData">
        <edge id="E7">
            <lane id="E7_0" sampledSeconds="1850.02" traveltime="133.57" overlapTraveltime="134.19" density="19.16" laneDensity="19.16" occupancy="9.56" waitingTime="0.00" timeLoss="190.67" speed="12.03" speedRelative="0.87" departed="20" arrived="0" entered="0" left="12" laneChangedFrom="15" laneChangedTo="7"/>
            <lane id="E7_1" sampledSeconds="713.40" traveltime="117.90" overlapTraveltime="118.28" density="7.39" laneDensity="7.39" occupancy="3.69" waitingTime="0.00" timeLoss="54.77" speed="13.65" speedRelative="0.98" departed="0" arrived="0" entered="0" left="4" laneChangedFrom="7" laneChangedTo="15"/>
        </edge>
    </interval>
    <interval begin="180.00" end="240.00" id="e7laneData">
        <edge id="E7">
            <lane id="E7_0" sampledSeconds="1863.68" traveltime="133.77" overlapTraveltime="134.44" density="19.30" laneDensity="19.30" occupancy="9.62" waitingTime="0.00" timeLoss="198.03" speed="12.01" speedRelative="0.86" departed="20" arrived="0" entered="0" left="18" laneChangedFrom="12" laneChangedTo="9"/>
            <lane id="E7_1" sampledSeconds="746.28" traveltime="114.59" overlapTraveltime="114.97" density="7.73" laneDensity="7.73" occupancy="3.86" waitingTime="0.00" timeLoss="43.32" speed="14.04" speedRelative="1.01" departed="0" arrived="0" entered="0" left="5" laneChangedFrom="9" laneChangedTo="12"/>
        </edge>
    </interval>
    <interval begin="240.00" end="300.00" id="e7laneData">
        <edge id="E7">
            <lane id="E7_0" sampledSeconds="1887.07" traveltime="130.57" overlapTraveltime="131.19" density="19.54" laneDensity="19.54" occupancy="9.75" waitingTime="0.00" timeLoss="168.16" speed="12.31" speedRelative="0.89" departed="20" arrived="0" entered="0" left="14" laneChangedFrom="9" laneChangedTo="7"/>
            <lane id="E7_1" sampledSeconds="618.08" traveltime="116.03" overlapTraveltime="116.38" density="6.40" laneDensity="6.40" occupancy="3.20" waitingTime="0.00" timeLoss="30.58" speed="13.87" speedRelative="1.00" departed="0" arrived="0" entered="0" left="4" laneChangedFrom="7" laneChangedTo="9"/>
        </edge>
    </interval>
    <interval begin="300.00" end="360.00" id="e7laneData">
        <edge id="E7">
            <lane id="E7_0" sampledSeconds="1774.38" traveltime="130.56" overlapTraveltime="131.14" density="18.38" laneDensity="18.38" occupancy="9.17" waitingTime="0.00" timeLoss="159.45" speed="12.31" speedRelative="0.89" departed="20" arrived="0" entered="0" left="14" laneChangedFrom="16" laneChangedTo="4"/>
            <lane id="E7_1" sampledSeconds="738.16" traveltime="115.89" overlapTraveltime="116.28" density="7.64" laneDensity="7.64" occupancy="3.81" waitingTime="0.00" timeLoss="38.59" speed="13.88" speedRelative="1.00" departed="0" arrived="0" entered="0" left="8" laneChangedFrom="4" laneChangedTo="16"/>
        </edge>
    </interval>
    <interval begin="360.00" end="420.00" id="e7laneData">
        <edge id="E7">
            <lane id="E7_0" sampledSeconds="1711.74" traveltime="130.49" overlapTraveltime="131.08" density="17.73" laneDensity="17.73" occupancy="8.84" waitingTime="0.00" timeLoss="155.05" speed="12.32" speedRelative="0.89" departed="20" arrived="0" entered="0" left="12" laneChangedFrom="18" laneChangedTo="10"/>
            <lane id="E7_1" sampledSeconds="817.78" traveltime="113.74" overlapTraveltime="114.11" density="8.47" laneDensity="8.47" occupancy="4.23" waitingTime="0.00" timeLoss="38.78" speed="14.15" speedRelative="1.02" departed="0" arrived="0" entered="0" left="6" laneChangedFrom="10" laneChangedTo="18"/>
        </edge>
    </interval>
    <interval begin="420.00" end="480.00" id="e7laneData">
        <edge id="E7">
            <lane id="E7_0" sampledSeconds="1647.56" traveltime="132.34" overlapTraveltime="132.87" density="17.06" laneDensity="17.06" occupancy="8.51" waitingTime="0.00" timeLoss="170.15" speed="12.15" speedRelative="0.87" departed="20" arrived="0" entered="0" left="13" laneChangedFrom="19" laneChangedTo="14"/>
            <lane id="E7_1" sampledSeconds="832.15" traveltime="113.98" overlapTraveltime="114.37" density="8.62" laneDensity="8.62" occupancy="4.30" waitingTime="0.00" timeLoss="52.50" speed="14.12" speedRelative="1.02" departed="0" arrived="0" entered="0" left="9" laneChangedFrom="14" laneChangedTo="19"/>
        </edge>
    </interval>
    <interval begin="480.00" end="540.00" id="e7laneData">
        <edge id="E7">
            <lane id="E7_0" sampledSeconds="1823.98" traveltime="133.48" overlapTraveltime="134.20" density="18.89" laneDensity="18.89" occupancy="9.42" waitingTime="0.00" timeLoss="184.04" speed="12.03" speedRelative="0.87" departed="20" arrived="0" entered="0" left="15" laneChangedFrom="13" laneChangedTo="8"/>
            <lane id="E7_1" sampledSeconds="694.71" traveltime="112.42" overlapTraveltime="112.77" density="7.19" laneDensity="7.19" occupancy="3.59" waitingTime="0.00" timeLoss="33.14" speed="14.32" speedRelative="1.03" departed="0" arrived="0" entered="0" left="5" laneChangedFrom="8" laneChangedTo="13"/>
        </edge>
    </interval>
    <interval begin="540.00" end="600.00" id="e7laneData">
        <edge id="E7">
            <lane id="E7_0" sampledSeconds="1827.97" traveltime="133.32" overlapTraveltime="133.96" density="18.93" laneDensity="18.93" occupancy="9.44" waitingTime="0.00" timeLoss="167.21" speed="12.05" speedRelative="0.87" departed="20" arrived="0" entered="0" left="12" laneChangedFrom="16" laneChangedTo="14"/>
            <lane id="E7_1" sampledSeconds="694.16" traveltime="117.21" overlapTraveltime="117.58" density="7.19" laneDensity="7.19" occupancy="3.59" waitingTime="0.00" timeLoss="38.33" speed="13.73" speedRelative="0.99" departed="0" arrived="0" entered="0" left="5" laneChangedFrom="14" laneChangedTo="16"/>
        </edge>
    </interval>
    <interval begin="600.00" end="660.00" id="e7laneData">
        <edge id="E7">
            <lane id="E7_0" sampledSeconds="1954.72" traveltime="131.44" overlapTraveltime="132.17" density="20.24" laneDensity="20.24" occupancy="10.09" waitingTime="0.00" timeLoss="200.95" speed="12.21" speedRelative="0.88" departed="20" arrived="0" entered="0" left="17" laneChangedFrom="14" laneChangedTo="7"/>
            <lane id="E7_1" sampledSeconds="642.49" traveltime="116.31" overlapTraveltime="116.68" density="6.65" laneDensity="6.65" occupancy="3.32" waitingTime="0.00" timeLoss="35.23" speed="13.84" speedRelative="1.00" departed="0" arrived="0" entered="0" left="3" laneChangedFrom="7" laneChangedTo="14"/>
        </edge>
    </interval>
    <interval begin="660.00" end="720.00" id="e7laneData">
        <edge id="E7">
            <lane id="E7_0" sampledSeconds="1792.51" traveltime="131.50" overlapTraveltime="132.15" density="18.56" laneDensity="18.56" occupancy="9.26" waitingTime="0.00" timeLoss="177.62" speed="12.22" speedRelative="0.88" departed="20" arrived="0" entered="0" left="13" laneChangedFrom="20" laneChangedTo="10"/>
            <lane id="E7_1" sampledSeconds="797.93" traveltime="114.22" overlapTraveltime="114.60" density="8.26" laneDensity="8.26" occupancy="4.12" waitingTime="0.00" timeLoss="51.28" speed="14.09" speedRelative="1.01" departed="0" arrived="0" entered="0" left="10" laneChangedFrom="10" laneChangedTo="20"/>
        </edge>
    </interval>
    <interval begin="720.00" end="780.00" id="e7laneData">
        <edge id="E7">
            <lane id="E7_0" sampledSeconds="1639.12" traveltime="135.76" overlapTraveltime="136.44" density="16.98" laneDensity="16.98" occupancy="8.47" waitingTime="0.00" timeLoss="173.66" speed="11.83" speedRelative="0.85" departed="20" arrived="0" entered="0" left="12" laneChangedFrom="19" laneChangedTo="12"/>
            <lane id="E7_1" sampledSeconds="838.70" traveltime="118.40" overlapTraveltime="118.76" density="8.69" laneDensity="8.69" occupancy="4.34" waitingTime="0.00" timeLoss="51.41" speed="13.59" speedRelative="0.98" departed="0" arrived="0" entered="0" left="6" laneChangedFrom="12" laneChangedTo="19"/>
        </edge>
    </interval>
    <interval begin="780.00" end="840.00" id="e7laneData">
        <edge id="E7">
            <lane id="E7_0" sampledSeconds="1680.74" traveltime="136.20" overlapTraveltime="136.75" density="17.41" laneDensity="17.41" occupancy="8.69" waitingTime="0.00" timeLoss="167.52" speed="11.80" speedRelative="0.85" departed="20" arrived="0" entered="0" left="11" laneChangedFrom="17" laneChangedTo="12"/>
            <lane id="E7_1" sampledSeconds="886.01" traveltime="117.87" overlapTraveltime="118.24" density="9.18" laneDensity="9.18" occupancy="4.58" waitingTime="0.00" timeLoss="64.04" speed="13.65" speedRelative="0.98" departed="0" arrived="0" entered="0" left="6" laneChangedFrom="12" laneChangedTo="17"/>
        </edge>
    </interval>
    <interval begin="840.00" end="900.00" id="e7laneData">
        <edge id="E7">
            <lane id="E7_0" sampledSeconds="1888.76" traveltime="132.05" overlapTraveltime="132.83" density="19.56" laneDensity="19.56" occupancy="9.75" waitingTime="0.00" timeLoss="189.93" speed="12.15" speedRelative="0.87" departed="20" arrived="0" entered="0" left="16" laneChangedFrom="19" laneChangedTo="11"/>
            <lane id="E7_1" sampledSeconds="756.43" traveltime="114.49" overlapTraveltime="114.86" density="7.83" laneDensity="7.83" occupancy="3.91" waitingTime="0.00" timeLoss="38.70" speed="14.06" speedRelative="1.01" departed="0" arrived="0" entered="0" left="9" laneChangedFrom="11" laneChangedTo="19"/>
        </edge>
    </interval>
    <interval begin="900.00" end="960.00" id="e7laneData">
        <edge id="E7">
            <lane id="E7_0" sampledSeconds="1786.77" traveltime="132.47" overlapTraveltime="133.10" density="18.50" laneDensity="18.50" occupancy="9.23" waitingTime="0.00" timeLoss="187.41" speed="12.13" speedRelative="0.87" departed="20" arrived="0" entered="0" left="15" laneChangedFrom="20" laneChangedTo="10"/>
            <lane id="E7_1" sampledSeconds="723.48" traveltime="116.18" overlapTraveltime="116.55" density="7.49" laneDensity="7.49" occupancy="3.74" waitingTime="0.00" timeLoss="41.40" speed="13.85" speedRelative="1.00" departed="0" arrived="0" entered="0" left="8" laneChangedFrom="10" laneChangedTo="20"/>
        </edge>
    </interval>
    <interval begin="960.00" end="1020.00" id="e7laneData">
        <edge id="E7">
            <lane id="E7_0" sampledSeconds="1702.46" traveltime="136.65" overlapTraveltime="137.33" density="17.63" laneDensity="17.63" occupancy="8.80" waitingTime="0.00" timeLoss="179.79" speed="11.76" speedRelative="0.85" departed="20" arrived="0" entered="0" left="9" laneChangedFrom="18" laneChangedTo="12"/>
            <lane id="E7_1" sampledSeconds="873.54" traveltime="117.74" overlapTraveltime="118.11" density="9.05" laneDensity="9.05" occupancy="4.52" waitingTime="0.00" timeLoss="63.11" speed="13.67" speedRelative="0.98" departed="0" arrived="0" entered="0" left="5" laneChangedFrom="12" laneChangedTo="18"/>
        </edge>
    </interval>
    <interval begin="1020.00" end="1080.00" id="e7laneData">
        <edge id="E7">
            <lane id="E7_0" sampledSeconds="1590.60" traveltime="137.43" overlapTraveltime="138.06" density="16.47" laneDensity="16.47" occupancy="8.22" waitingTime="0.00" timeLoss="160.79" speed="11.69" speedRelative="0.84" departed="20" arrived="0" entered="0" left="13" laneChangedFrom="19" laneChangedTo="9"/>
            <lane id="E7_1" sampledSeconds="971.57" traveltime="115.63" overlapTraveltime="116.00" density="10.06" laneDensity="10.06" occupancy="5.02" waitingTime="0.00" timeLoss="64.20" speed="13.92" speedRelative="1.00" departed="0" arrived="0" entered="0" left="8" laneChangedFrom="9" laneChangedTo="19"/>
        </edge>
    </interval>
    <interval begin="1080.00" end="1140.00" id="e7laneData">
        <edge id="E7">
            <lane id="E7_0" sampledSeconds="1650.73" traveltime="132.64" overlapTraveltime="133.21" density="17.10" laneDensity="17.10" occupancy="8.53" waitingTime="0.00" timeLoss="160.41" speed="12.12" speedRelative="0.87" departed="19" arrived="0" entered="0" left="10" laneChangedFrom="12" laneChangedTo="5"/>
            <lane id="E7_1" sampledSeconds="865.28" traveltime="113.91" overlapTraveltime="114.27" density="8.96" laneDensity="8.96" occupancy="4.47" waitingTime="0.00" timeLoss="58.35" speed="14.13" speedRelative="1.02" departed="0" arrived="0" entered="0" left="8" laneChangedFrom="5" laneChangedTo="12"/>
        </edge>
    </interval>
    <interval begin="1140.00" end="1200.00" id="e7laneData">
        <edge id="E7">
            <lane id="E7_0" sampledSeconds="1743.50" traveltime="132.65" overlapTraveltime="133.37" density="18.06" laneDensity="18.06" occupancy="9.00" waitingTime="0.00" timeLoss="180.59" speed="12.10" speedRelative="0.87" departed="20" arrived="0" entered="0" left="13" laneChangedFrom="13" laneChangedTo="8"/>
            <lane id="E7_1" sampledSeconds="746.82" traveltime="111.70" overlapTraveltime="112.05" density="7.73" laneDensity="7.73" occupancy="3.86" waitingTime="0.00" timeLoss="42.40" speed="14.41" speedRelative="1.04" departed="0" arrived="0" entered="0" left="10" laneChangedFrom="8" laneChangedTo="13"/>
        </edge>
    </interval>
    <interval begin="1200.00" end="1260.00" id="e7laneData">
        <edge id="E7">
            <lane id="E7_0" sampledSeconds="1694.61" traveltime="135.23" overlapTraveltime="136.01" density="17.55" laneDensity="17.55" occupancy="8.75" waitingTime="0.00" timeLoss="178.98" speed="11.87" speedRelative="0.85" departed="20" arrived="0" entered="0" left="15" laneChangedFrom="16" laneChangedTo="12"/>
            <lane id="E7_1" sampledSeconds="824.75" traveltime="116.09" overlapTraveltime="116.46" density="8.54" laneDensity="8.54" occupancy="4.27" waitingTime="0.00" timeLoss="70.72" speed="13.86" speedRelative="1.00" departed="0" arrived="0" entered="0" left="2" laneChangedFrom="12" laneChangedTo="16"/>
        </edge>
    </interval>
    <interval begin="1260.00" end="1320.00" id="e7laneData">
        <edge id="E7">
            <lane id="E7_0" sampledSeconds="1843.08" traveltime="135.77" overlapTraveltime="136.36" density="19.09" laneDensity="19.09" occupancy="9.52" waitingTime="0.00" timeLoss="200.86" speed="11.84" speedRelative="0.85" departed="21" arrived="0" entered="0" left="14" laneChangedFrom="16" laneChangedTo="13"/>
            <lane id="E7_1" sampledSeconds="705.19" traveltime="117.82" overlapTraveltime="118.17" density="7.30" laneDensity="7.30" occupancy="3.65" waitingTime="0.00" timeLoss="56.69" speed="13.66" speedRelative="0.98" departed="0" arrived="0" entered="0" left="7" laneChangedFrom="13" laneChangedTo="16"/>
        </edge>
    </interval>
    <interval begin="1320.00" end="1380.00" id="e7laneData">
        <edge id="E7">
            <lane id="E7_0" sampledSeconds="1874.51" traveltime="134.25" overlapTraveltime="135.00" density="19.41" laneDensity="19.41" occupancy="9.68" waitingTime="0.00" timeLoss="229.08" speed="11.96" speedRelative="0.86" departed="19" arrived="0" entered="0" left="15" laneChangedFrom="22" laneChangedTo="13"/>
            <lane id="E7_1" sampledSeconds="766.42" traveltime="116.74" overlapTraveltime="117.11" density="7.94" laneDensity="7.94" occupancy="3.96" waitingTime="0.00" timeLoss="47.62" speed="13.78" speedRelative="0.99" departed="0" arrived="0" entered="0" left="4" laneChangedFrom="13" laneChangedTo="22"/>
        </edge>
    </interval>
    <interval begin="1380.00" end="1440.00" id="e7laneData">
        <edge id="E7">
            <lane id="E7_0" sampledSeconds="1859.39" traveltime="131.15" overlapTraveltime="131.88" density="19.26" laneDensity="19.26" occupancy="9.60" waitingTime="0.00" timeLoss="200.55" speed="12.24" speedRelative="0.88" departed="20" arrived="0" entered="0" left="15" laneChangedFrom="17" laneChangedTo="12"/>
            <lane id="E7_1" sampledSeconds="728.11" traveltime="113.05" overlapTraveltime="113.44" density="7.54" laneDensity="7.54" occupancy="3.76" waitingTime="0.00" timeLoss="41.49" speed="14.23" speedRelative="1.02" departed="0" arrived="0" entered="0" left="9" laneChangedFrom="12" laneChangedTo="17"/>
        </edge>
    </interval>
    <interval begin="1440.00" end="1500.00" id="e7laneData">
        <edge id="E7">
            <lane id="E7_0" sampledSeconds="1692.83" traveltime="132.05" overlapTraveltime="132.58" density="17.53" laneDensity="17.53" occupancy="8.75" waitingTime="0.00" timeLoss="160.59" speed="12.18" speedRelative="0.88" departed="20" arrived="0" entered="0" left="11" laneChangedFrom="18" laneChangedTo="9"/>
            <lane id="E7_1" sampledSeconds="749.08" traveltime="116.10" overlapTraveltime="116.45" density="7.76" laneDensity="7.76" occupancy="3.87" waitingTime="0.00" timeLoss="42.21" speed="13.86" speedRelative="1.00" departed="0" arrived="0" entered="0" left="7" laneChangedFrom="9" laneChangedTo="18"/>
        </edge>
    </interval>
    <interval begin="1500.00" end="1560.00" id="e7laneData">
        <edge id="E7">
            <lane id="E7_0" sampledSeconds="1785.09" traveltime="134.73" overlapTraveltime="135.37" density="18.49" laneDensity="18.49" occupancy="9.22" waitingTime="0.00" timeLoss="172.02" speed="11.93" speedRelative="0.86" departed="20" arrived="0" entered="0" left="12" laneChangedFrom="19" laneChangedTo="10"/>
            <lane id="E7_1" sampledSeconds="746.35" traveltime="117.29" overlapTraveltime="117.66" density="7.73" laneDensity="7.73" occupancy="3.86" waitingTime="0.00" timeLoss="40.50" speed="13.72" speedRelative="0.99" departed="0" arrived="0" entered="0" left="8" laneChangedFrom="10" laneChangedTo="19"/>
        </edge>
    </interval>
    <interval begin="1560.00" end="1620.00" id="e7laneData">
        <edge id="E7">
            <lane id="E7_0" sampledSeconds="1787.49" traveltime="134.40" overlapTraveltime="135.06" density="18.51" laneDensity="18.51" occupancy="9.23" waitingTime="0.00" timeLoss="176.03" speed="11.95" speedRelative="0.86" departed="20" arrived="0" entered="0" left="15" laneChangedFrom="15" laneChangedTo="13"/>
            <lane id="E7_1" sampledSeconds="742.45" traveltime="119.59" overlapTraveltime="119.95" density="7.69" laneDensity="7.69" occupancy="3.84" waitingTime="0.00" timeLoss="40.13" speed="13.46" speedRelative="0.97" departed="0" arrived="0" entered="0" left="4" laneChangedFrom="13" laneChangedTo="15"/>
        </edge>
    </interval>
    <interval begin="1620.00" end="1680.00" id="e7laneData">
        <edge id="E7">
            <lane id="E7_0" sampledSeconds="1936.89" traveltime="130.83" overlapTraveltime="131.41" density="20.06" laneDensity="20.06" occupancy="10.01" waitingTime="0.00" timeLoss="181.18" speed="12.28" speedRelative="0.88" departed="20" arrived="0" entered="0" left="12" laneChangedFrom="15" laneChangedTo="5"/>
            <lane id="E7_1" sampledSeconds="698.79" traveltime="118.26" overlapTraveltime="118.65" density="7.24" laneDensity="7.24" occupancy="3.61" waitingTime="0.00" timeLoss="43.02" speed="13.61" speedRelative="0.98" departed="0" arrived="0" entered="0" left="7" laneChangedFrom="5" laneChangedTo="15"/>
        </edge>
    </interval>
    <interval begin="1680.00" end="1740.00" id="e7laneData">
        <edge id="E7">
            <lane id="E7_0" sampledSeconds="1726.43" traveltime="127.61" overlapTraveltime="128.09" density="17.88" laneDensity="17.88" occupancy="8.92" waitingTime="0.00" timeLoss="154.07" speed="12.60" speedRelative="0.91" departed="20" arrived="0" entered="0" left="15" laneChangedFrom="11" laneChangedTo="4"/>
            <lane id="E7_1" sampledSeconds="749.63" traveltime="114.77" overlapTraveltime="115.13" density="7.76" laneDensity="7.76" occupancy="3.88" waitingTime="0.00" timeLoss="46.08" speed="14.02" speedRelative="1.01" departed="0" arrived="0" entered="0" left="6" laneChangedFrom="4" laneChangedTo="11"/>
        </edge>
    </interval>
    <interval begin="1740.00" end="1800.00" id="e7laneData">
        <edge id="E7">
            <lane id="E7_0" sampledSeconds="1788.36" traveltime="131.26" overlapTraveltime="131.85" density="18.52" laneDensity="18.52" occupancy="9.24" waitingTime="0.00" timeLoss="169.05" speed="12.24" speedRelative="0.88" departed="20" arrived="0" entered="0" left="13" laneChangedFrom="15" laneChangedTo="8"/>
            <lane id="E7_1" sampledSeconds="729.48" traveltime="116.01" overlapTraveltime="116.40" density="7.55" laneDensity="7.55" occupancy="3.77" waitingTime="0.00" timeLoss="49.46" speed="13.87" speedRelative="1.00" departed="0" arrived="0" entered="0" left="9" laneChangedFrom="8" laneChangedTo="15"/>
        </edge>
    </interval>
    <interval begin="1800.00" end="1860.00" id="e7laneData">
        <edge id="E7">
            <lane id="E7_0" sampledSeconds="1694.71" traveltime="134.02" overlapTraveltime="134.66" density="17.55" laneDensity="17.55" occupancy="8.75" waitingTime="0.00" timeLoss="164.04" speed="11.99" speedRelative="0.86" departed="20" arrived="0" entered="0" left="12" laneChangedFrom="14" laneChangedTo="10"/>
            <lane id="E7_1" sampledSeconds="781.65" traveltime="116.10" overlapTraveltime="116.46" density="8.09" laneDensity="8.09" occupancy="4.04" waitingTime="0.00" timeLoss="42.68" speed="13.86" speedRelative="1.00" departed="0" arrived="0" entered="0" left="6" laneChangedFrom="10" laneChangedTo="14"/>
        </edge>
    </interval>
    <interval begin="1860.00" end="1920.00" id="e7laneData">
        <edge id="E7">
            <lane id="E7_0" sampledSeconds="1736.67" traveltime="134.67" overlapTraveltime="135.29" density="17.99" laneDensity="17.99" occupancy="8.97" waitingTime="0.00" timeLoss="169.40" speed="11.93" speedRelative="0.86" departed="20" arrived="0" entered="0" left="15" laneChangedFrom="17" laneChangedTo="11"/>
            <lane id="E7_1" sampledSeconds="877.39" traveltime="112.46" overlapTraveltime="112.82" density="9.09" laneDensity="9.09" occupancy="4.54" waitingTime="0.00" timeLoss="43.98" speed="14.31" speedRelative="1.03" departed="0" arrived="0" entered="0" left="5" laneChangedFrom="11" laneChangedTo="17"/>
        </edge>
    </interval>
    <interval begin="1920.00" end="1980.00" id="e7laneData">
        <edge id="E7">
            <lane id="E7_0" sampledSeconds="1817.91" traveltime="131.71" overlapTraveltime="132.26" density="18.83" laneDensity="18.83" occupancy="9.39" waitingTime="0.00" timeLoss="182.71" speed="12.21" speedRelative="0.88" departed="20" arrived="0" entered="0" left="13" laneChangedFrom="18" laneChangedTo="11"/>
            <lane id="E7_1" sampledSeconds="669.87" traveltime="114.71" overlapTraveltime="115.11" density="6.94" laneDensity="6.94" occupancy="3.46" waitingTime="0.00" timeLoss="41.19" speed="14.02" speedRelative="1.01" departed="0" arrived="0" entered="0" left="7" laneChangedFrom="11" laneChangedTo="18"/>
        </edge>
    </interval>
    <interval begin="1980.00" end="2040.00" id="e7laneData">
        <edge id="E7">
            <lane id="E7_0" sampledSeconds="1823.90" traveltime="132.12" overlapTraveltime="132.74" density="18.89" laneDensity="18.89" occupancy="9.42" waitingTime="0.00" timeLoss="185.16" speed="12.16" speedRelative="0.88" departed="20" arrived="0" entered="0" left="17" laneChangedFrom="16" laneChangedTo="9"/>
            <lane id="E7_1" sampledSeconds="742.62" traveltime="113.25" overlapTraveltime="113.60" density="7.69" laneDensity="7.69" occupancy="3.84" waitingTime="0.00" timeLoss="39.49" speed="14.21" speedRelative="1.02" departed="0" arrived="0" entered="0" left="6" laneChangedFrom="9" laneChangedTo="16"/>
        </edge>
    </interval>
    <interval begin="2040.00" end="2100.00" id="e7laneData">
        <edge id="E7">
            <lane id="E7_0" sampledSeconds="1808.76" traveltime="132.07" overlapTraveltime="132.73" density="18.73" laneDensity="18.73" occupancy="9.34" waitingTime="0.00" timeLoss="174.07" speed="12.16" speedRelative="0.88" departed="20" arrived="0" entered="0" left="14" laneChangedFrom="15" laneChangedTo="11"/>
            <lane id="E7_1" sampledSeconds="712.81" traveltime="114.20" overlapTraveltime="114.55" density="7.38" laneDensity="7.38" occupancy="3.69" waitingTime="0.00" timeLoss="40.75" speed="14.09" speedRelative="1.01" departed="0" arrived="0" entered="0" left="3" laneChangedFrom="11" laneChangedTo="15"/>
        </edge>
    </interval>
    <interval begin="2100.00" end="2160.00" id="e7laneData">
        <edge id="E7">
            <lane id="E7_0" sampledSeconds="1722.61" traveltime="134.71" overlapTraveltime="135.33" density="17.84" laneDensity="17.84" occupancy="8.90" waitingTime="0.00" timeLoss="164.65" speed="11.93" speedRelative="0.86" departed="19" arrived="0" entered="0" left="14" laneChangedFrom="15" laneChangedTo="10"/>
            <lane id="E7_1" sampledSeconds="776.76" traveltime="115.86" overlapTraveltime="116.21" density="8.04" laneDensity="8.04" occupancy="4.02" waitingTime="0.00" timeLoss="36.77" speed="13.89" speedRelative="1.00" departed="0" arrived="0" entered="0" left="6" laneChangedFrom="10" laneChangedTo="15"/>
        </edge>
    </interval>
    <interval begin="2160.00" end="2220.00" id="e7laneData">
        <edge id="E7">
            <lane id="E7_0" sampledSeconds="1824.84" traveltime="135.65" overlapTraveltime="136.33" density="18.90" laneDensity="18.90" occupancy="9.43" waitingTime="0.00" timeLoss="189.60" speed="11.84" speedRelative="0.85" departed="20" arrived="0" entered="0" left="13" laneChangedFrom="18" laneChangedTo="11"/>
            <lane id="E7_1" sampledSeconds="710.44" traveltime="118.08" overlapTraveltime="118.49" density="7.36" laneDensity="7.36" occupancy="3.67" waitingTime="0.00" timeLoss="35.38" speed="13.62" speedRelative="0.98" departed="0" arrived="0" entered="0" left="6" laneChangedFrom="11" laneChangedTo="18"/>
        </edge>
    </interval>
    <interval begin="2220.00" end="2280.00" id="e7laneData">
        <edge id="E7">
            <lane id="E7_0" sampledSeconds="1779.30" traveltime="138.93" overlapTraveltime="139.71" density="18.43" laneDensity="18.43" occupancy="9.19" waitingTime="0.00" timeLoss="219.02" speed="11.55" speedRelative="0.83" departed="21" arrived="0" entered="0" left="15" laneChangedFrom="21" laneChangedTo="14"/>
            <lane id="E7_1" sampledSeconds="928.24" traveltime="116.88" overlapTraveltime="117.26" density="9.61" laneDensity="9.61" occupancy="4.80" waitingTime="0.00" timeLoss="52.46" speed="13.77" speedRelative="0.99" departed="0" arrived="0" entered="0" left="3" laneChangedFrom="14" laneChangedTo="21"/>
        </edge>
    </interval>
    <interval begin="2280.00" end="2340.00" id="e7laneData">
        <edge id="E7">
            <lane id="E7_0" sampledSeconds="1625.55" traveltime="135.75" overlapTraveltime="136.43" density="16.83" laneDensity="16.83" occupancy="8.39" waitingTime="0.00" timeLoss="162.93" speed="11.83" speedRelative="0.85" departed="20" arrived="0" entered="0" left="14" laneChangedFrom="20" laneChangedTo="14"/>
            <lane id="E7_1" sampledSeconds="924.17" traveltime="117.63" overlapTraveltime="118.03" density="9.57" laneDensity="9.57" occupancy="4.78" waitingTime="0.00" timeLoss="49.39" speed="13.68" speedRelative="0.98" departed="0" arrived="0" entered="0" left="10" laneChangedFrom="14" laneChangedTo="20"/>
        </edge>
    </interval>
    <interval begin="2340.00" end="2400.00" id="e7laneData">
        <edge id="E7">
            <lane id="E7_0" sampledSeconds="1711.18" traveltime="139.31" overlapTraveltime="139.86" density="17.72" laneDensity="17.72" occupancy="8.84" waitingTime="0.00" timeLoss="194.63" speed="11.54" speedRelative="0.83" departed="20" arrived="0" entered="0" left="12" laneChangedFrom="22" laneChangedTo="14"/>