<?xml version="1.0" encoding="UTF-8"?>

<!-- generated on 2024-06-05 18:47:32 by Eclipse SUMO GUI Version 1.19.0
<configuration xmlns:xsi="http://www.w3.org/2001/XMLSchema-instance" xsi:noNamespaceSchemaLocation="http://sumo.dlr.de/xsd/sumoConfiguration.xsd">

    <input>
        <net-file value="C:\Users\joshu\Code\sumo-str-sim\pureba\net.net.xml"/>
        <route-files value="C:\Users\joshu\Code\sumo-str-sim\pureba\net.rou.xml"/>
        <additional-files value="C:\Users\joshu\Code\sumo-str-sim\pureba\net.add.xml,C:\Users\joshu\Code\sumo-str-sim\pureba\sumoNet.med.add.xml"/>
    </input>

</configuration>
-->

<meandata xmlns:xsi="http://www.w3.org/2001/XMLSchema-instance" xsi:noNamespaceSchemaLocation="http://sumo.dlr.de/xsd/meandata_file.xsd">
    <interval begin="0.00" end="60.00" id="e7laneData">
        <edge id="E7">
            <lane id="E7_0" sampledSeconds="520.00" traveltime="140.71" overlapTraveltime="141.14" density="5.39" laneDensity="5.39" occupancy="2.69" waitingTime="0.00" timeLoss="82.01" speed="11.44" speedRelative="0.82" departed="20" arrived="0" entered="0" left="0" laneChangedFrom="7" laneChangedTo="1"/>
            <lane id="E7_1" sampledSeconds="90.00" traveltime="118.12" overlapTraveltime="118.48" density="0.93" laneDensity="0.93" occupancy="0.47" waitingTime="0.00" timeLoss="5.65" speed="13.62" speedRelative="0.98" departed="0" arrived="0" entered="0" left="0" laneChangedFrom="1" laneChangedTo="7"/>
        </edge>
    </interval>
    <interval begin="60.00" end="120.00" id="e7laneData">
        <edge id="E7">
            <lane id="E7_0" sampledSeconds="1349.00" traveltime="133.18" overlapTraveltime="133.59" density="13.97" laneDensity="13.97" occupancy="6.99" waitingTime="0.00" timeLoss="138.69" speed="12.08" speedRelative="0.87" departed="20" arrived="0" entered="0" left="0" laneChangedFrom="10" laneChangedTo="6"/>
            <lane id="E7_1" sampledSeconds="461.00" traveltime="120.16" overlapTraveltime="120.54" density="4.77" laneDensity="4.77" occupancy="2.39" waitingTime="0.00" timeLoss="33.08" speed="13.39" speedRelative="0.96" departed="0" arrived="0" entered="0" left="0" laneChangedFrom="6" laneChangedTo="10"/>
        </edge>
    </interval>
    <interval begin="120.00" end="180.00" id="e7laneData">
        <edge id="E7">
            <lane id="E7_0" sampledSeconds="1821.75" traveltime="133.49" overlapTraveltime="134.06" density="18.87" laneDensity="18.87" occupancy="9.42" waitingTime="0.00" timeLoss="185.18" speed="12.04" speedRelative="0.87" departed="20" arrived="0" entered="0" left="12" laneChangedFrom="15" laneChangedTo="6"/>
            <lane id="E7_1" sampledSeconds="736.20" traveltime="117.56" overlapTraveltime="117.93" density="7.62" laneDensity="7.62" occupancy="3.81" waitingTime="0.00" timeLoss="54.84" speed="13.69" speedRelative="0.99" departed="0" arrived="0" entered="0" left="4" laneChangedFrom="6" laneChangedTo="15"/>
        </edge>
    </interval>
    <interval begin="180.00" end="240.00" id="e7laneData">
        <edge id="E7">
            <lane id="E7_0" sampledSeconds="1768.26" traveltime="133.63" overlapTraveltime="134.29" density="18.31" laneDensity="18.31" occupancy="9.13" waitingTime="0.00" timeLoss="178.99" speed="12.02" speedRelative="0.87" departed="20" arrived="0" entered="0" left="14" laneChangedFrom="13" laneChangedTo="7"/>
            <lane id="E7_1" sampledSeconds="836.63" traveltime="115.35" overlapTraveltime="115.71" density="8.66" laneDensity="8.66" occupancy="4.32" waitingTime="0.00" timeLoss="53.15" speed="13.95" speedRelative="1.00" departed="0" arrived="0" entered="0" left="9" laneChangedFrom="7" laneChangedTo="13"/>
        </edge>
    </interval>
    <interval begin="240.00" end="300.00" id="e7laneData">
        <edge id="E7">
            <lane id="E7_0" sampledSeconds="1976.60" traveltime="130.67" overlapTraveltime="131.21" density="20.47" laneDensity="20.47" occupancy="10.22" waitingTime="0.00" timeLoss="182.69" speed="12.30" speedRelative="0.89" departed="20" arrived="0" entered="0" left="12" laneChangedFrom="11" laneChangedTo="6"/>
            <lane id="E7_1" sampledSeconds="550.39" traveltime="116.05" overlapTraveltime="116.42" density="5.70" laneDensity="5.70" occupancy="2.84" waitingTime="0.00" timeLoss="28.54" speed="13.87" speedRelative="1.00" departed="0" arrived="0" entered="0" left="6" laneChangedFrom="6" laneChangedTo="11"/>
        </edge>
    </interval>
    <interval begin="300.00" end="360.00" id="e7laneData">
        <edge id="E7">
            <lane id="E7_0" sampledSeconds="1746.56" traveltime="131.86" overlapTraveltime="132.43" density="18.09" laneDensity="18.09" occupancy="9.02" waitingTime="0.00" timeLoss="160.55" speed="12.19" speedRelative="0.88" departed="20" arrived="0" entered="0" left="14" laneChangedFrom="15" laneChangedTo="4"/>
            <lane id="E7_1" sampledSeconds="778.23" traveltime="114.10" overlapTraveltime="114.48" density="8.06" laneDensity="8.06" occupancy="4.02" waitingTime="0.00" timeLoss="37.45" speed="14.10" speedRelative="1.02" departed="0" arrived="0" entered="0" left="9" laneChangedFrom="4" laneChangedTo="15"/>
        </edge>
    </interval>
    <interval begin="360.00" end="420.00" id="e7laneData">
        <edge id="E7">
            <lane id="E7_0" sampledSeconds="1723.55" traveltime="130.72" overlapTraveltime="131.18" density="17.85" laneDensity="17.85" occupancy="8.91" waitingTime="0.00" timeLoss="157.64" speed="12.31" speedRelative="0.89" departed="20" arrived="0" entered="0" left="11" laneChangedFrom="19" laneChangedTo="11"/>
            <lane id="E7_1" sampledSeconds="805.24" traveltime="113.25" overlapTraveltime="113.61" density="8.34" laneDensity="8.34" occupancy="4.16" waitingTime="0.00" timeLoss="38.14" speed="14.21" speedRelative="1.02" departed="0" arrived="0" entered="0" left="7" laneChangedFrom="11" laneChangedTo="19"/>
        </edge>
    </interval>
    <interval begin="420.00" end="480.00" id="e7laneData">
        <edge id="E7">
            <lane id="E7_0" sampledSeconds="1606.26" traveltime="131.80" overlapTraveltime="132.32" density="16.63" laneDensity="16.63" occupancy="8.30" waitingTime="0.00" timeLoss="161.58" speed="12.20" speedRelative="0.88" departed="20" arrived="0" entered="0" left="13" laneChangedFrom="22" laneChangedTo="12"/>
            <lane id="E7_1" sampledSeconds="882.67" traveltime="113.76" overlapTraveltime="114.13" density="9.14" laneDensity="9.14" occupancy="4.56" waitingTime="0.00" timeLoss="46.74" speed="14.14" speedRelative="1.02" departed="0" arrived="0" entered="0" left="9" laneChangedFrom="12" laneChangedTo="22"/>
        </edge>
    </interval>
    <interval begin="480.00" end="540.00" id="e7laneData">
        <edge id="E7">
            <lane id="E7_0" sampledSeconds="1731.88" traveltime="132.86" overlapTraveltime="133.42" density="17.94" laneDensity="17.94" occupancy="8.95" waitingTime="0.00" timeLoss="164.59" speed="12.10" speedRelative="0.87" departed="20" arrived="0" entered="0" left="11" laneChangedFrom="15" laneChangedTo="8"/>
            <lane id="E7_1" sampledSeconds="777.71" traveltime="114.06" overlapTraveltime="114.40" density="8.05" laneDensity="8.05" occupancy="4.02" waitingTime="0.00" timeLoss="43.47" speed="14.11" speedRelative="1.02" departed="0" arrived="0" entered="0" left="9" laneChangedFrom="8" laneChangedTo="15"/>
        </edge>
    </interval>
    <interval begin="540.00" end="600.00" id="e7laneData">
        <edge id="E7">
            <lane id="E7_0" sampledSeconds="1818.71" traveltime="133.30" overlapTraveltime="133.90" density="18.83" laneDensity="18.83" occupancy="9.40" waitingTime="0.00" timeLoss="164.24" speed="12.06" speedRelative="0.87" departed="19" arrived="0" entered="0" left="11" laneChangedFrom="13" laneChangedTo="9"/>
            <lane id="E7_1" sampledSeconds="668.47" traveltime="116.46" overlapTraveltime="116.82" density="6.92" laneDensity="6.92" occupancy="3.45" waitingTime="0.00" timeLoss="35.67" speed="13.82" speedRelative="0.99" departed="0" arrived="0" entered="0" left="7" laneChangedFrom="9" laneChangedTo="13"/>
        </edge>
    </interval>
    <interval begin="600.00" end="660.00" id="e7laneData">
        <edge id="E7">
            <lane id="E7_0" sampledSeconds="1733.06" traveltime="130.39" overlapTraveltime="130.95" density="17.95" laneDensity="17.95" occupancy="8.96" waitingTime="0.00" timeLoss="161.96" speed="12.33" speedRelative="0.89" departed="20" arrived="0" entered="0" left="12" laneChangedFrom="18" laneChangedTo="8"/>
            <lane id="E7_1" sampledSeconds="762.98" traveltime="117.77" overlapTraveltime="118.15" density="7.90" laneDensity="7.90" occupancy="3.94" waitingTime="0.00" timeLoss="46.89" speed="13.66" speedRelative="0.98" departed="0" arrived="0" entered="0" left="6" laneChangedFrom="8" laneChangedTo="18"/>
        </edge>
    </interval>
    <interval begin="660.00" end="720.00" id="e7laneData">
        <edge id="E7">
            <lane id="E7_0" sampledSeconds="1686.28" traveltime="131.01" overlapTraveltime="131.58" density="17.46" laneDensity="17.46" occupancy="8.71" waitingTime="0.00" timeLoss="159.90" speed="12.27" speedRelative="0.88" departed="20" arrived="0" entered="0" left="12" laneChangedFrom="18" laneChangedTo="7"/>
            <lane id="E7_1" sampledSeconds="857.46" traveltime="115.37" overlapTraveltime="115.72" density="8.88" laneDensity="8.88" occupancy="4.43" waitingTime="0.00" timeLoss="61.02" speed="13.95" speedRelative="1.00" departed="0" arrived="0" entered="0" left="10" laneChangedFrom="7" laneChangedTo="18"/>
        </edge>
    </interval>
    <interval begin="720.00" end="780.00" id="e7laneData">
        <edge id="E7">
            <lane id="E7_0" sampledSeconds="1592.03" traveltime="136.47" overlapTraveltime="137.04" density="16.49" laneDensity="16.49" occupancy="8.23" waitingTime="0.00" timeLoss="169.80" speed="11.78" speedRelative="0.85" departed="20" arrived="0" entered="0" left="9" laneChangedFrom="22" laneChangedTo="12"/>
            <lane id="E7_1" sampledSeconds="881.04" traveltime="118.41" overlapTraveltime="118.78" density="9.12" laneDensity="9.12" occupancy="4.56" waitingTime="0.00" timeLoss="58.46" speed="13.59" speedRelative="0.98" departed="0" arrived="0" entered="0" left="7" laneChangedFrom="12" laneChangedTo="22"/>
        </edge>
    </interval>
    <interval begin="780.00" end="840.00" id="e7laneData">
        <edge id="E7">
            <lane id="E7_0" sampledSeconds="1651.65" traveltime="136.13" overlapTraveltime="136.72" density="17.10" laneDensity="17.10" occupancy="8.54" waitingTime="0.00" timeLoss="157.74" speed="11.81" speedRelative="0.85" departed="20" arrived="0" entered="0" left="11" laneChangedFrom="17" laneChangedTo="12"/>
            <lane id="E7_1" sampledSeconds="915.36" traveltime="118.06" overlapTraveltime="118.42" density="9.48" laneDensity="9.48" occupancy="4.73" waitingTime="0.00" timeLoss="70.35" speed="13.63" speedRelative="0.98" departed="0" arrived="0" entered="0" left="9" laneChangedFrom="12" laneChangedTo="17"/>
        </edge>
    </interval>
    <interval begin="840.00" end="900.00" id="e7laneData">
        <edge id="E7">
            <lane id="E7_0" sampledSeconds="1792.00" traveltime="131.83" overlapTraveltime="132.43" density="18.56" laneDensity="18.56" occupancy="9.26" waitingTime="0.00" timeLoss="163.38" speed="12.19" speedRelative="0.88" departed="20" arrived="0" entered="0" left="14" laneChangedFrom="16" laneChangedTo="7"/>
            <lane id="E7_1" sampledSeconds="838.25" traveltime="114.37" overlapTraveltime="114.74" density="8.68" laneDensity="8.68" occupancy="4.33" waitingTime="0.00" timeLoss="48.00" speed="14.07" speedRelative="1.01" departed="0" arrived="0" entered="0" left="10" laneChangedFrom="7" laneChangedTo="16"/>
        </edge>
    </interval>
    <interval begin="900.00" end="960.00" id="e7laneData">
        <edge id="E7">
            <lane id="E7_0" sampledSeconds="1702.16" traveltime="133.11" overlapTraveltime="133.65" density="17.63" laneDensity="17.63" occupancy="8.80" waitingTime="0.00" timeLoss="163.78" speed="12.08" speedRelative="0.87" departed="20" arrived="0" entered="0" left="13" laneChangedFrom="22" laneChangedTo="10"/>
            <lane id="E7_1" sampledSeconds="812.63" traveltime="112.96" overlapTraveltime="113.30" density="8.42" laneDensity="8.42" occupancy="4.20" waitingTime="0.00" timeLoss="43.97" speed="14.25" speedRelative="1.03" departed="0" arrived="0" entered="0" left="9" laneChangedFrom="10" laneChangedTo="22"/>
        </edge>
    </interval>
    <interval begin="960.00" end="1020.00" id="e7laneData">
        <edge id="E7">
            <lane id="E7_0" sampledSeconds="1625.80" traveltime="137.14" overlapTraveltime="137.71" density="16.84" laneDensity="16.84" occupancy="8.40" waitingTime="0.00" timeLoss="167.70" speed="11.72" speedRelative="0.84" departed="20" arrived="0" entered="0" left="9" laneChangedFrom="16" laneChangedTo="10"/>
            <lane id="E7_1" sampledSeconds="897.02" traveltime="117.08" overlapTraveltime="117.44" density="9.29" laneDensity="9.29" occupancy="4.64" waitingTime="0.00" timeLoss="61.03" speed="13.75" speedRelative="0.99" departed="0" arrived="0" entered="0" left="6" laneChangedFrom="10" laneChangedTo="16"/>
        </edge>
    </interval>
    <interval begin="1020.00" end="1080.00" id="e7laneData">
        <edge id="E7">
            <lane id="E7_0" sampledSeconds="1630.40" traveltime="137.33" overlapTraveltime="137.89" density="16.88" laneDensity="16.88" occupancy="8.42" waitingTime="0.00" timeLoss="170.88" speed="11.71" speedRelative="0.84" departed="20" arrived="0" entered="0" left="14" laneChangedFrom="16" laneChangedTo="11"/>
            <lane id="E7_1" sampledSeconds="958.20" traveltime="116.21" overlapTraveltime="116.58" density="9.92" laneDensity="9.92" occupancy="4.96" waitingTime="0.00" timeLoss="61.58" speed="13.85" speedRelative="1.00" departed="0" arrived="0" entered="0" left="6" laneChangedFrom="11" laneChangedTo="16"/>
        </edge>
    </interval>
    <interval begin="1080.00" end="1140.00" id="e7laneData">
        <edge id="E7">
            <lane id="E7_0" sampledSeconds="1615.99" traveltime="132.92" overlapTraveltime="133.46" density="16.74" laneDensity="16.74" occupancy="8.35" waitingTime="1.00" timeLoss="158.93" speed="12.10" speedRelative="0.87" departed="20" arrived="0" entered="0" left="12" laneChangedFrom="13" laneChangedTo="4"/>
            <lane id="E7_1" sampledSeconds="887.95" traveltime="113.80" overlapTraveltime="114.16" density="9.20" laneDensity="9.20" occupancy="4.59" waitingTime="0.00" timeLoss="58.11" speed="14.14" speedRelative="1.02" departed="0" arrived="0" entered="0" left="8" laneChangedFrom="4" laneChangedTo="13"/>
        </edge>
    </interval>
    <interval begin="1140.00" end="1200.00" id="e7laneData">
        <edge id="E7">
            <lane id="E7_0" sampledSeconds="1680.95" traveltime="132.74" overlapTraveltime="133.25" density="17.41" laneDensity="17.41" occupancy="8.69" waitingTime="0.00" timeLoss="162.74" speed="12.12" speedRelative="0.87" departed="20" arrived="0" entered="0" left="12" laneChangedFrom="16" laneChangedTo="9"/>
            <lane id="E7_1" sampledSeconds="819.80" traveltime="110.65" overlapTraveltime="111.01" density="8.49" laneDensity="8.49" occupancy="4.24" waitingTime="0.00" timeLoss="44.25" speed="14.54" speedRelative="1.05" departed="0" arrived="0" entered="0" left="11" laneChangedFrom="9" laneChangedTo="16"/>
        </edge>
    </interval>
    <interval begin="1200.00" end="1260.00" id="e7laneData">
        <edge id="E7">
            <lane id="E7_0" sampledSeconds="1680.54" traveltime="133.88" overlapTraveltime="134.41" density="17.40" laneDensity="17.40" occupancy="8.69" waitingTime="0.00" timeLoss="167.05" speed="12.01" speedRelative="0.86" departed="20" arrived="0" entered="0" left="12" laneChangedFrom="22" laneChangedTo="12"/>
            <lane id="E7_1" sampledSeconds="815.07" traveltime="116.02" overlapTraveltime="116.39" density="8.44" laneDensity="8.44" occupancy="4.22" waitingTime="0.00" timeLoss="67.77" speed="13.87" speedRelative="1.00" departed="0" arrived="0" entered="0" left="5" laneChangedFrom="12" laneChangedTo="22"/>
        </edge>
    </interval>
    <interval begin="1260.00" end="1320.00" id="e7laneData">
        <edge id="E7">
            <lane id="E7_0" sampledSeconds="1725.25" traveltime="136.42" overlapTraveltime="136.98" density="17.87" laneDensity="17.87" occupancy="8.92" waitingTime="0.00" timeLoss="180.63" speed="11.79" speedRelative="0.85" departed="20" arrived="0" entered="0" left="11" laneChangedFrom="18" laneChangedTo="12"/>
            <lane id="E7_1" sampledSeconds="816.18" traveltime="115.85" overlapTraveltime="116.20" density="8.45" laneDensity="8.45" occupancy="4.22" waitingTime="0.00" timeLoss="57.94" speed="13.89" speedRelative="1.00" departed="0" arrived="0" entered="0" left="9" laneChangedFrom="12" laneChangedTo="18"/>
        </edge>
    </interval>
    <interval begin="1320.00" end="1380.00" id="e7laneData">
        <edge id="E7">
            <lane id="E7_0" sampledSeconds="1760.54" traveltime="133.50" overlapTraveltime="133.99" density="18.23" laneDensity="18.23" occupancy="9.10" waitingTime="0.00" timeLoss="196.21" speed="12.05" speedRelative="0.87" departed="20" arrived="0" entered="0" left="11" laneChangedFrom="17" laneChangedTo="10"/>
            <lane id="E7_1" sampledSeconds="836.55" traveltime="116.45" overlapTraveltime="116.81" density="8.66" laneDensity="8.66" occupancy="4.33" waitingTime="0.00" timeLoss="52.77" speed="13.82" speedRelative="1.00" departed="0" arrived="0" entered="0" left="7" laneChangedFrom="10" laneChangedTo="17"/>
        </edge>
    </interval>
    <interval begin="1380.00" end="1440.00" id="e7laneData">
        <edge id="E7">
            <lane id="E7_0" sampledSeconds="1753.05" traveltime="131.15" overlapTraveltime="131.76" density="18.15" laneDensity="18.15" occupancy="9.05" waitingTime="0.00" timeLoss="181.02" speed="12.25" speedRelative="0.88" departed="20" arrived="0" entered="0" left="16" laneChangedFrom="20" laneChangedTo="10"/>
            <lane id="E7_1" sampledSeconds="835.63" traveltime="113.17" overlapTraveltime="113.54" density="8.65" laneDensity="8.65" occupancy="4.32" waitingTime="0.00" timeLoss="47.04" speed="14.22" speedRelative="1.02" departed="0" arrived="0" entered="0" left="12" laneChangedFrom="10" laneChangedTo="20"/>
        </edge>
    </interval>
    <interval begin="1440.00" end="1500.00" id="e7laneData">
        <edge id="E7">
            <lane id="E7_0" sampledSeconds="1643.44" traveltime="132.40" overlapTraveltime="132.90" density="17.02" laneDensity="17.02" occupancy="8.50" waitingTime="0.00" timeLoss="160.77" speed="12.15" speedRelative="0.87" departed="20" arrived="0" entered="0" left="9" laneChangedFrom="18" laneChangedTo="10"/>
            <lane id="E7_1" sampledSeconds="801.89" traveltime="117.39" overlapTraveltime="117.73" density="8.30" laneDensity="8.30" occupancy="4.15" waitingTime="0.00" timeLoss="48.43" speed="13.71" speedRelative="0.99" departed="0" arrived="0" entered="0" left="7" laneChangedFrom="10" laneChangedTo="18"/>
        </edge>
    </interval>
    <interval begin="1500.00" end="1560.00" id="e7laneData">
        <edge id="E7">
            <lane id="E7_0" sampledSeconds="1806.77" traveltime="134.53" overlapTraveltime="135.11" density="18.71" laneDensity="18.71" occupancy="9.34" waitingTime="0.00" timeLoss="172.11" speed="11.95" speedRelative="0.86" departed="20" arrived="0" entered="0" left="11" laneChangedFrom="18" laneChangedTo="10"/>
            <lane id="E7_1" sampledSeconds="756.32" traveltime="117.27" overlapTraveltime="117.65" density="7.83" laneDensity="7.83" occupancy="3.91" waitingTime="0.00" timeLoss="41.21" speed="13.72" speedRelative="0.99" departed="0" arrived="0" entered="0" left="9" laneChangedFrom="10" laneChangedTo="18"/>
        </edge>
    </interval>
    <interval begin="1560.00" end="1620.00" id="e7laneData">
        <edge id="E7">
            <lane id="E7_0" sampledSeconds="1684.52" traveltime="134.27" overlapTraveltime="134.86" density="17.45" laneDensity="17.45" occupancy="8.71" waitingTime="0.00" timeLoss="162.42" speed="11.97" speedRelative="0.86" departed="20" arrived="0" entered="0" left="11" laneChangedFrom="17" laneChangedTo="8"/>
            <lane id="E7_1" sampledSeconds="861.28" traveltime="120.12" overlapTraveltime="120.50" density="8.92" laneDensity="8.92" occupancy="4.45" waitingTime="0.00" timeLoss="46.27" speed="13.40" speedRelative="0.96" departed="0" arrived="0" entered="0" left="8" laneChangedFrom="8" laneChangedTo="17"/>
        </edge>
    </interval>
    <interval begin="1620.00" end="1680.00" id="e7laneData">
        <edge id="E7">
            <lane id="E7_0" sampledSeconds="1794.65" traveltime="131.22" overlapTraveltime="131.77" density="18.59" laneDensity="18.59" occupancy="9.28" waitingTime="0.00" timeLoss="164.54" speed="12.25" speedRelative="0.88" departed="20" arrived="0" entered="0" left="10" laneChangedFrom="17" laneChangedTo="7"/>
            <lane id="E7_1" sampledSeconds="839.43" traveltime="118.32" overlapTraveltime="118.71" density="8.69" laneDensity="8.69" occupancy="4.34" waitingTime="0.00" timeLoss="52.75" speed="13.60" speedRelative="0.98" departed="0" arrived="0" entered="0" left="7" laneChangedFrom="7" laneChangedTo="17"/>
        </edge>
    </interval>
    <interval begin="1680.00" end="1740.00" id="e7laneData">
        <edge id="E7">
            <lane id="E7_0" sampledSeconds="1744.68" traveltime="127.68" overlapTraveltime="128.27" density="18.07" laneDensity="18.07" occupancy="9.01" waitingTime="0.00" timeLoss="154.17" speed="12.59" speedRelative="0.91" departed="20" arrived="0" entered="0" left="16" laneChangedFrom="11" laneChangedTo="5"/>
            <lane id="E7_1" sampledSeconds="706.47" traveltime="114.73" overlapTraveltime="115.09" density="7.32" laneDensity="7.32" occupancy="3.65" waitingTime="0.00" timeLoss="46.28" speed="14.03" speedRelative="1.01" departed="0" arrived="0" entered="0" left="8" laneChangedFrom="5" laneChangedTo="11"/>
        </edge>
    </interval>
    <interval begin="1740.00" end="1800.00" id="e7laneData">
        <edge id="E7">
            <lane id="E7_0" sampledSeconds="1686.16" traveltime="131.37" overlapTraveltime="131.96" density="17.46" laneDensity="17.46" occupancy="8.71" waitingTime="0.00" timeLoss="149.88" speed="12.23" speedRelative="0.88" departed="20" arrived="0" entered="0" left="14" laneChangedFrom="15" laneChangedTo="6"/>
            <lane id="E7_1" sampledSeconds="825.49" traveltime="115.33" overlapTraveltime="115.70" density="8.55" laneDensity="8.55" occupancy="4.27" waitingTime="0.00" timeLoss="55.59" speed="13.95" speedRelative="1.00" departed="0" arrived="0" entered="0" left="8" laneChangedFrom="6" laneChangedTo="15"/>
        </edge>
    </interval>
    <interval begin="1800.00" end="1860.00" id="e7laneData">
        <edge id="E7">
            <lane id="E7_0" sampledSeconds="1652.26" traveltime="133.86" overlapTraveltime="134.37" density="17.11" laneDensity="17.11" occupancy="8.54" waitingTime="0.00" timeLoss="156.55" speed="12.01" speedRelative="0.86" departed="19" arrived="0" entered="0" left="12" laneChangedFrom="16" laneChangedTo="13"/>
            <lane id="E7_1" sampledSeconds="786.47" traveltime="116.98" overlapTraveltime="117.34" density="8.14" laneDensity="8.14" occupancy="4.07" waitingTime="0.00" timeLoss="48.55" speed="13.76" speedRelative="0.99" departed="0" arrived="0" entered="0" left="5" laneChangedFrom="13" laneChangedTo="16"/>
        </edge>
    </interval>
    <interval begin="1860.00" end="1920.00" id="e7laneData">
        <edge id="E7">
            <lane id="E7_0" sampledSeconds="1679.24" traveltime="134.24" overlapTraveltime="134.76" density="17.39" laneDensity="17.39" occupancy="8.68" waitingTime="0.00" timeLoss="153.92" speed="11.98" speedRelative="0.86" departed="20" arrived="0" entered="0" left="13" laneChangedFrom="15" laneChangedTo="8"/>
            <lane id="E7_1" sampledSeconds="909.48" traveltime="112.96" overlapTraveltime="113.33" density="9.42" laneDensity="9.42" occupancy="4.70" waitingTime="0.00" timeLoss="50.73" speed="14.24" speedRelative="1.03" departed="0" arrived="0" entered="0" left="7" laneChangedFrom="8" laneChangedTo="15"/>
        </edge>
    </interval>
    <interval begin="1920.00" end="1980.00" id="e7laneData">
        <edge id="E7">
            <lane id="E7_0" sampledSeconds="1725.01" traveltime="132.55" overlapTraveltime="133.17" density="17.86" laneDensity="17.86" occupancy="8.91" waitingTime="0.00" timeLoss="175.24" speed="12.12" speedRelative="0.87" departed="20" arrived="0" entered="0" left="12" laneChangedFrom="18" laneChangedTo="11"/>
            <lane id="E7_1" sampledSeconds="751.31" traveltime="114.82" overlapTraveltime="115.20" density="7.78" laneDensity="7.78" occupancy="3.88" waitingTime="0.00" timeLoss="46.51" speed="14.01" speedRelative="1.01" departed="0" arrived="0" entered="0" left="8" laneChangedFrom="11" laneChangedTo="18"/>
        </edge>
    </interval>
    <interval begin="1980.00" end="2040.00" id="e7laneData">
        <edge id="E7">
            <lane id="E7_0" sampledSeconds="1747.01" traveltime="132.20" overlapTraveltime="132.91" density="18.09" laneDensity="18.09" occupancy="9.02" waitingTime="0.00" timeLoss="173.94" speed="12.15" speedRelative="0.87" departed="20" arrived="0" entered="0" left="14" laneChangedFrom="20" laneChangedTo="12"/>
            <lane id="E7_1" sampledSeconds="786.20" traveltime="114.01" overlapTraveltime="114.38" density="8.14" laneDensity="8.14" occupancy="4.06" waitingTime="0.00" timeLoss="46.93" speed="14.11" speedRelative="1.02" departed="0" arrived="0" entered="0" left="9" laneChangedFrom="12" laneChangedTo="20"/>
        </edge>
    </interval>
    <interval begin="2040.00" end="2100.00" id="e7laneData">
        <edge id="E7">
            <lane id="E7_0" sampledSeconds="1814.43" traveltime="132.42" overlapTraveltime="132.95" density="18.79" laneDensity="18.79" occupancy="9.38" waitingTime="0.00" timeLoss="184.33" speed="12.14" speedRelative="0.87" departed="20" arrived="0" entered="0" left="13" laneChangedFrom="15" laneChangedTo="11"/>
            <lane id="E7_1" sampledSeconds="678.32" traveltime="114.56" overlapTraveltime="114.93" density="7.02" laneDensity="7.02" occupancy="3.51" waitingTime="0.00" timeLoss="39.24" speed="14.05" speedRelative="1.01" departed="0" arrived="0" entered="0" left="4" laneChangedFrom="11" laneChangedTo="15"/>
        </edge>
    </interval>
    <interval begin="2100.00" end="2160.00" id="e7laneData">
        <edge id="E7">
            <lane id="E7_0" sampledSeconds="1774.43" traveltime="133.52" overlapTraveltime="134.11" density="18.38" laneDensity="18.38" occupancy="9.17" waitingTime="0.00" timeLoss="168.11" speed="12.04" speedRelative="0.87" departed="20" arrived="0" entered="0" left="12" laneChangedFrom="19" laneChangedTo="10"/>
            <lane id="E7_1" sampledSeconds="732.27" traveltime="117.64" overlapTraveltime="118.00" density="7.58" laneDensity="7.58" occupancy="3.79" waitingTime="0.00" timeLoss="40.95" speed="13.68" speedRelative="0.98" departed="0" arrived="0" entered="0" left="7" laneChangedFrom="10" laneChangedTo="19"/>
        </edge>
    </interval>
    <interval begin="2160.00" end="2220.00" id="e7laneData">
        <edge id="E7">
            <lane id="E7_0" sampledSeconds="1820.23" traveltime="135.09" overlapTraveltime="135.70" density="18.85" laneDensity="18.85" occupancy="9.41" waitingTime="0.00" timeLoss="180.41" speed="11.90" speedRelative="0.86" departed="20" arrived="0" entered="0" left="12" laneChangedFrom="20" laneChangedTo="11"/>
            <lane id="E7_1" sampledSeconds="737.04" traveltime="118.07" overlapTraveltime="118.44" density="7.63" laneDensity="7.63" occupancy="3.81" waitingTime="0.00" timeLoss="38.05" speed="13.63" speedRelative="0.98" departed="0" arrived="0" entered="0" left="8" laneChangedFrom="11" laneChangedTo="20"/>
        </edge>
    </interval>
    <interval begin="2220.00" end="2280.00" id="e7laneData">
        <edge id="E7">
            <lane id="E7_0" sampledSeconds="1652.87" traveltime="136.29" overlapTraveltime="136.74" density="17.12" laneDensity="17.12" occupancy="8.55" waitingTime="0.00" timeLoss="163.90" speed="11.81" speedRelative="0.85" departed="20" arrived="0" entered="0" left="11" laneChangedFrom="20" laneChangedTo="9"/>
            <lane id="E7_1" sampledSeconds="998.39" traveltime="116.39" overlapTraveltime="116.77" density="10.34" laneDensity="10.34" occupancy="5.16" waitingTime="0.00" timeLoss="57.24" speed="13.83" speedRelative="1.00" departed="0" arrived="0" entered="0" left="7" laneChangedFrom="9" laneChangedTo="20"/>
        </edge>
    </interval>
    <interval begin="2280.00" end="2340.00" id="e7laneData">
        <edge id="E7">
            <lane id="E7_0" sampledSeconds="1615.21" traveltime="136.37" overlapTraveltime="136.96" density="16.73" laneDensity="16.73" occupancy="8.34" waitingTime="0.00" timeLoss="162.54" speed="11.79" speedRelative="0.85" departed="20" arrived="0" entered="0" left="14" laneChangedFrom="22" laneChangedTo="17"/>
            <lane id="E7_1" sampledSeconds="916.56" traveltime="116.91" overlapTraveltime="117.28" density="9.49" laneDensity="9.49" occupancy="4.74" waitingTime="0.00" timeLoss="50.06" speed="13.76" speedRelative="0.99" departed="0" arrived="0" entered="0" left="9" laneChangedFrom="17" laneChangedTo="22"/>
        </edge>
    </interval>
    <interval begin="2340.00" end="2400.00" id="e7laneData">
        <edge id="E7">
            <lane id="E7_0" sampledSeconds="1664.42" traveltime="138.78" overlapTraveltime="139.35" density="17.24" laneDensity="17.24" occupancy="8.60" waitingTime="0.00" timeLoss="174.87" speed="11.58" speedRelative="0.83" departed="20" arrived="0" entered="0" left="12" laneChangedFrom="23" laneChangedTo="14"/>